
30517  0.0000000e+00
   1.7610000  29.5480000  11.8970000   2.6209307  29.7067774  11.3919708
   0.9591557  29.7418840  11.3095454   1.7310100  30.1878632  12.6841142
   1.6870000  28.1680000  12.4540000   1.6576386  27.4344979  11.6505540
   0.4410000  28.0530000  13.2820000   0.2180000  28.8100000  14.2390000
   2.8780000  27.8540000  13.3760000   2.8174028  28.4856494  14.2657439
   4.1850000  28.1650000  12.6620000   4.1742096  29.1794395  12.2675605
   4.3340147  27.4784172  11.8267469   2.8560000  26.3760000  13.8210000
   1.9481523  26.1567387  14.3882486   2.9198718  25.7043535  12.9649653
   3.6889537  26.1772055  14.4971436   5.4010000  28.1220000  13.5760000
   5.1717562  28.6029627  14.5261020   6.2345395  28.6473270  13.1211547
   5.7017888  27.0881739  13.7520001  -0.3990000  27.1490000  12.8610000
  -0.1560749  26.5123370  12.1197300  -1.5590000  26.7980000  13.6190000
  -1.7660931  27.5699722  14.3636565  -1.3860000  25.4760000  14.3880000
  -0.5890000  24.5870000  14.0280000  -2.7460000  26.8050000  12.6790000
  -2.7029615  25.9196815  12.0420203  -3.6396249  26.7303814  13.2951247
  -2.7150000  28.0490000  11.7870000  -2.4714567  27.7434302  10.7660476
  -1.9598426  28.7742575  12.0960811  -4.0060000  28.8470000  11.7910000
  -5.0250000  28.3590000  12.3440000  -4.0030000  29.9730000  11.2360000
  -2.1510000  25.3890000  15.4680000  -2.8276549  26.1180323  15.6328049
  -2.0820000  24.3170000  16.4430000  -1.0439501  24.2134569  16.7471290
  -2.6610000  22.9820000  16.0140000  -3.8150000  22.8910000  15.6190000
  -2.8690000  24.7650000  17.6790000  -2.9201848  23.9394387  18.3920242
  -3.8916863  25.0088061  17.3849732  -2.2640000  25.9740000  18.3750000
  -2.9550679  26.3063691  19.1490848  -2.1465507  26.8004537  17.6739021
  -0.9570000  25.6650000  19.0470000  -0.8690000  24.7560000  19.8930000
   0.0650000  26.4460000  18.7130000   0.0234003  27.1926846  18.0474005
   0.9409397  26.3607421  19.2235544  -1.8580000  21.9110000  16.1030000
  -2.3850000  20.5850000  15.7650000  -2.7356685  20.5951306  14.7327866
  -3.4960000  20.0610000  16.6890000  -3.4130000  20.4230000  17.8610000
  -1.1180000  19.6800000  15.8810000  -1.1294836  19.1530147  16.8365812
  -1.0731192  18.9626865  15.0618198   0.0190000  20.5710000  15.8640000
   0.3181604  20.7483852  14.8295911   0.8605441  20.1565168  16.4185779
  -0.4270000  21.8800000  16.4710000  -0.3089312  21.8837522  17.5522740
   0.1324756  22.6964191  16.0148940  -4.4690000  19.2450000  16.2300000
  -4.5082745  19.0819593  15.2357119  -5.4880000  18.6400000  17.0950000
  -6.1261765  19.4292267  17.5013318  -4.8760000  17.9740000  18.2940000
  -5.4210000  18.0220000  19.3910000  -6.3560000  17.5900000  16.3760000
  -5.6838120  16.9399874  15.8193633  -6.8688925  16.9725653  17.1170135
  -7.3690000  18.1320000  15.4790000  -8.2393200  18.4566854  16.0524352
  -6.9522081  19.0218444  15.0043115  -7.7870000  17.2270000  14.3710000
  -8.2007879  17.8576836  13.5802043  -6.9119652  16.7157805  13.9625224
  -8.8010000  16.2630000  14.7500000  -9.0945470  16.2318363  15.7124229
  -9.3430000  15.3740000  13.9030000  -9.0090000  15.3770000  12.6220000
  -8.3138756  16.0279837  12.3105822  -9.5102240  14.7850540  11.9861067
 -10.2530000  14.5110000  14.3210000 -10.5850882  14.5644519  15.2671019
 -10.5389301  13.7751619  13.6996227  -3.7380000  17.2830000  18.0630000
  -3.3011892  17.3491675  17.1597400  -3.0910000  16.5040000  19.0950000
  -3.8531647  16.0286470  19.7155975  -2.2190000  17.3080000  20.0670000
  -1.6760000  16.7430000  20.9860000  -2.2580000  15.3920000  18.4230000
  -1.6330602  14.9097274  19.1730992  -2.9526583  14.6319537  18.0631015
  -1.3990000  15.8060000  17.2670000  -1.6410000  15.5870000  15.9570000
  -2.4828774  15.0371753  15.5679858  -0.1370000  16.4820000  17.3330000
  -0.6270000  16.0840000  15.1840000  -0.5425858  15.9573655  14.1806959
   0.3200000  16.6360000  16.0120000   0.6450000  16.9730000  18.3660000
   0.3230736  16.8561793  19.3854879   1.5190000  17.2870000  15.7080000
   1.8573875  17.3902817  14.6878197   1.8240000  17.6080000  18.0810000
   2.4431728  17.9919087  18.8809462   2.2750000  17.7210000  16.7400000
   3.2302231  18.1879886  16.5398217  -1.9430000  18.5830000  19.8120000
  -2.4695300  19.0922863  19.1131329  -1.0010000  19.3460000  20.6520000
  -0.1510239  18.7102406  20.8914306  -1.6310000  19.7820000  21.9490000
  -2.7890000  20.2100000  21.9750000  -0.4460000  20.5910000  19.9160000
  -1.2713329  21.2393604  19.6155950   0.2173710  21.1531121  20.5746038
   0.1106979  20.2686410  19.0369007  -0.8900000  19.6820000  23.0430000
   0.0703817  19.3646054  22.9732075  -1.4550000  20.0600000  24.3440000
  -2.3683645  19.4917713  24.5196916  -1.7510000  21.5240000  24.4120000
  -0.9720000  22.3570000  23.9710000  -0.4470000  19.7100000  25.4080000
   0.5007876  20.1940413  25.1760756  -0.2976444  18.6294049  25.4312949
  -0.9200000  20.1600000  26.6780000  -0.2192956  20.0383289  27.3296631
  -2.9080000  21.8610000  24.9880000  -3.5172071  21.1212484  25.2985005
  -3.2710000  23.2460000  25.2380000  -2.7076469  23.9119403  24.5795753
  -2.9220000  23.6560000  26.6640000  -3.2380000  24.8070000  27.0380000
  -4.7670000  23.4850000  25.0340000  -5.0111409  24.4992201  25.3512264
  -5.3171323  22.7895913  25.6713279  -5.2240000  23.3290000  23.5910000
  -4.9858383  22.3195678  23.2517319  -4.7045051  24.0413385  22.9473373
  -6.6980000  23.5200000  23.5020000  -7.0455701  23.0680374  22.5706512
  -7.1876248  23.0006383  24.3283492  -7.0690000  24.9810000  23.4920000
  -6.4909611  25.4977919  24.2645010  -6.7754730  25.4031928  22.5252633
  -8.5350000  25.1870000  23.7390000  -9.0783099  24.6571832  23.0685212
  -8.7714796  26.1677889  23.6476370  -8.7846274  24.8798092  24.6709206
  -2.3240000  22.7450000  27.4550000  -2.0255752  21.8769323  27.0329307
  -1.9430000  22.9860000  28.8540000  -2.8486654  23.1549905  29.4389435
  -1.0870000  24.1940000  28.9250000  -0.2160000  24.3900000  28.0660000
  -1.1820000  21.7890000  29.4630000  -1.7348223  20.8757440  29.2375803
  -0.1951133  21.7050580  29.0042304  -1.0340000  21.8870000  30.9800000
  -0.0330000  22.5010000  31.4700000  -1.8810000  21.3750000  31.7900000
  -1.2420000  24.9930000  29.9880000  -1.8592893  24.7397881  30.7476641
  -0.4440000  26.2050000  30.0700000  -0.6402606  26.8103854  29.1843270
   1.0670000  25.9370000  30.1100000   1.8530000  26.8010000  29.7120000
  -0.8470000  27.0180000  31.3030000  -0.2392912  27.9226840  31.3567944
  -1.9001708  27.2948596  31.2380811  -0.6320000  26.2330000  32.4530000
   0.2424883  25.8320663  32.4332599   1.4760000  24.7550000  30.6010000
   0.7875044  24.0647708  30.9081035   2.9040000  24.3730000  30.7090000
   3.5058007  25.2796589  30.7827440   3.4550000  23.5730000  29.5080000
   4.6390000  23.2970000  29.4760000   3.1480000  23.5420000  31.9990000
   4.2145480  23.3482218  32.1228887   2.7827560  24.0890108  32.8680946
   2.6186151  22.5900048  31.9315260   2.6320000  23.1980000  28.5390000
   1.6654475  23.5064727  28.5592157   3.0600000  22.2090000  27.4690000
   2.9854131  21.2293981  27.9423880   4.4980000  22.1820000  26.7930000
   5.2310000  21.1330000  26.6600000   1.9960000  22.2430000  26.4090000
   1.9579062  23.2293226  25.9428686   1.0214645  22.0318788  26.8469294
   2.2203190  21.5073419  25.6372960   4.8840000  23.3450000  26.3370000
   4.2427294  24.1163055  26.4418790   6.1540000  23.5880000  25.6520000
   5.9625522  24.0729384  24.6938181   6.6909701  22.6594450  25.4683455
   7.0190000  24.5010000  26.4960000   7.9240000  25.1370000  25.9690000
   6.8030000  24.5250000  27.8160000   6.1299716  23.8895372  28.2328670
   7.5860000  25.3590000  28.6970000   8.0689379  26.1572654  28.1309253
   8.6060000  24.5360000  29.3800000   8.3590000  23.3790000  29.6880000
   6.6640000  25.9900000  29.7350000   5.7202327  26.2818293  29.2694841
   6.4522364  25.2816461  30.5400019   7.1364448  26.8796789  30.1539608
   9.7550000  25.1360000  29.5890000   9.8619284  26.0887455  29.2869767
  10.8870000  24.4820000  30.2040000  11.0712953  23.5309514  29.6985956
  10.6220000  24.2180000  31.6740000  10.0870000  25.0660000  32.4080000
  12.0700000  25.3730000  30.0530000  11.8517031  26.3697423  30.4388405
  12.9092019  24.9463861  30.5994957  12.3519377  25.4305797  29.0031802
  11.0360000  23.0530000  32.1370000  11.2239834  22.3109771  31.4537136
  10.9080000  22.6770000  33.5420000  10.5118189  23.5063406  34.1271553
  12.2430000  22.3080000  34.1650000  12.2860000  21.8670000  35.3290000
   9.9270000  21.5270000  33.6680000  10.3935888  20.6037184  33.3189844
   9.6194360  21.4081850  34.7077846   8.8000000  21.8070000  32.8520000
   8.8940347  22.6774415  32.4537866  13.3280000  22.4470000  33.3910000
  13.2058562  22.7378372  32.4306177  14.6760000  22.1510000  33.8530000
  14.6892832  22.2528787  34.9349761  15.6420000  23.1260000  33.2180000
  15.3280000  23.7270000  32.1890000  15.1360000  20.7320000  33.5040000
  16.0408290  20.4814720  34.0543533  15.4170000  20.6910000  32.0940000
  14.9901523  19.8940572  31.7430996  14.0720000  19.6660000  33.7920000
  13.7420534  19.7315616  34.8283259  14.5024109  18.6776728  33.6280631
  13.2151385  19.7794895  33.1253797  16.8280000  23.2240000  33.7760000
  17.8910000  24.0440000  33.2150000  17.6100742  25.0952020  33.2716545
  18.1730000  23.6840000  31.7490000  18.3120000  24.5850000  30.9270000
  19.0780000  23.7720000  34.1520000  19.6103539  22.8673957  33.8503556
  19.7643733  24.6188932  34.1858901  18.4010000  23.5410000  35.4880000
  18.0984529  24.4970917  35.9179951  19.0531756  23.0081086  36.1811324
  17.1870000  22.7320000  35.1420000  16.4053496  22.9137935  35.8797204
  17.4525579  21.6748641  35.1070909  18.3060000  22.4070000  31.4600000
  18.2453310  21.6937870  32.1680104  18.5700000  22.0200000  30.0720000
  19.4562074  22.5472834  29.7117062  17.4280000  22.3960000  29.1230000
  17.6660000  22.8020000  27.9770000  18.8320000  20.5410000  30.0020000
  18.7549197  20.2244888  28.9615982  18.0745683  20.0016272  30.5748780
  20.2100000  20.1520000  30.4780000  21.0840000  21.0380000  30.7120000
  20.5170000  18.9460000  30.5520000  16.2070000  22.2140000  29.5700000
  16.0564605  21.8225824  30.4944182  15.0610000  22.5830000  28.7340000
  15.1726906  22.0999903  27.7624765  15.0870000  24.0750000  28.4650000
  14.7280000  24.5430000  27.3690000  13.7300000  22.1220000  29.3180000
  13.6341224  22.5170085  30.3303415  12.9280172  22.5395851  28.7101833
  13.5730000  20.6150000  29.3580000  13.6273596  20.2458000  28.3329734
  14.4051809  20.1646081  29.8951904  12.2670000  20.1400000  29.9650000
  11.3480000  20.9690000  30.1770000  12.1380000  18.9240000  30.2490000
  15.4810000  24.8420000  29.4810000  15.7479838  24.3974338  30.3543355
  15.5570000  26.2740000  29.3320000  14.5916666  26.6540170  28.9953099
  16.5500000  26.6870000  28.2480000  16.2170000  27.5550000  27.4240000
  15.8870000  26.9180000  30.7210000  16.1346095  27.9654364  30.5337169
  16.7779343  26.4542272  31.1343478  14.7710000  26.8970000  31.7720000
  13.8839715  27.3835284  31.3659429  14.5000819  25.8865509  32.0364197
  15.2250000  27.6690000  33.0320000  16.2977480  27.5016530  33.1489686
  15.0755353  28.7393966  32.8751447  14.5460000  27.2290000  34.3220000
  13.5979058  27.7699684  34.4090349  14.3145106  26.1608526  34.2573337
  15.4350000  27.4970000  35.5280000  15.8457690  28.4205928  35.4545978
  14.8921982  27.4573595  36.3826494  16.1797484  26.8151105  35.5809768
  17.7220000  26.0600000  28.2690000  17.9032205  25.3966422  29.0138341
  18.7680000  26.3240000  27.2740000  19.0068621  27.3906733  27.2720682
  18.1980000  25.9640000  25.8610000  18.3640000  26.7430000  24.8960000
  20.0450000  25.5280000  27.5630000  19.7685650  24.4817170  27.7026580
  20.7530000  25.9940000  28.8480000  20.0348723  26.0863315  29.6613113
  21.1544396  26.9913780  28.6615409  21.0020000  25.5950000  26.3440000
  21.9622403  25.1281948  26.5493147  21.1777061  26.6396029  26.0747312
  20.5699105  25.0731721  25.4895254  21.9100000  25.0970000  29.3300000
  22.3982038  24.5977316  28.5045478  21.5066710  24.3251501  29.9874263
  22.6351311  25.6950425  29.8826536  17.5070000  24.8260000  25.7380000
  17.4084472  24.2092466  26.5406525  17.0340000  24.3960000  24.4300000
  17.8678065  24.4287568  23.7281189  15.9880000  25.3910000  23.8970000
  15.9830000  25.7240000  22.6990000  16.5120000  22.9410000  24.4720000
  15.8467584  22.8370132  25.3296417  15.7010000  22.5820000  23.2040000
  14.7503056  23.1154796  23.1953575  15.4913931  21.5127218  23.2075310
  16.2721383  22.8265297  22.3072681  17.6800000  22.0140000  24.6680000
  18.3443911  22.3699641  25.4560889  17.3216067  21.0288654  24.9498547
  18.2445683  21.9286884  23.7385173  15.0960000  25.9010000  24.7680000
  15.1047038  25.6176329  25.7434154  14.1250000  26.8590000  24.2950000
  13.6931218  26.5032119  23.3611789  14.8110000  28.2050000  23.9320000
  14.3610000  28.8580000  22.9880000  12.9980000  27.1180000  25.2920000
  13.4426228  27.3529278  26.2609581  12.4309137  27.9906511  24.9606139
  12.0450000  25.9420000  25.4320000  12.6030351  25.0771105  25.7841524
  11.0380000  26.2990000  26.4850000  10.3644920  27.0693253  26.1069390
  10.4561596  25.4129523  26.7369392  11.5353890  26.6730002  27.3758772
  11.3710000  25.5800000  24.1600000  10.5715227  24.8635332  24.3615269
  12.0761968  25.1120994  23.4728938  10.9385034  26.4692078  23.6956381
  15.8960000  28.5930000  24.6170000  16.1847436  28.0813434  25.4440432
  16.6570000  29.7850000  24.2090000  15.9810004  30.6394251  24.1283298
  17.2440000  29.5410000  22.8140000  17.2110000  30.4410000  21.9540000
  17.7620000  30.1250000  25.2080000  18.3379113  29.2258067  25.4201008
  18.4313924  30.8562058  24.7518937  17.2330000  30.7160000  26.5160000
  16.8135155  31.7010699  26.2972765  16.4159300  30.0939586  26.8834621
  18.2600000  30.8540000  27.6080000  19.4460000  30.6010000  27.3290000
  17.8810000  31.2170000  28.7580000  17.7560000  28.3360000  22.5970000
  17.7968251  27.6760191  23.3671570  18.3200000  27.9740000  21.2930000
  19.0886152  28.7055851  21.0423337  17.2480000  28.0460000  20.1990000
  17.4900000  28.5640000  19.1060000  18.9600000  26.6110000  21.4130000
  19.6548987  26.6210049  22.2543811  18.2011599  25.8616780  21.6232582
  19.7290000  26.1970000  20.1820000  19.3980000  25.0510000  19.4530000
  18.5645879  24.4455571  19.7691425  20.8330000  26.9180000  19.7820000
  21.1197005  27.8010066  20.3285223  20.1100000  24.6820000  18.3630000
  19.8184674  23.7999328  17.8106827  21.5780000  26.5130000  18.6800000
  22.4519989  27.0743850  18.3858937  21.1850000  25.3890000  17.9630000
  21.7454600  25.0764577  17.0951886  16.0530000  27.5340000  20.4840000
  15.8868179  27.1276657  21.3989258  14.9970000  27.5880000  19.5140000
  15.3046340  27.1147430  18.5864608  14.6840000  29.0380000  19.1410000
  14.4200000  29.3530000  17.9750000  13.7370000  26.9330000  20.0090000
  13.4616346  27.3567181  20.9751619  12.9321519  27.1699504  19.3116668
  13.7850000  25.4040000  20.1410000  14.4753762  25.1266711  20.9325137
  12.7927361  25.0744039  20.4501354  14.2170000  24.5020000  18.6650000
  16.0090000  24.4660000  18.7980000  16.4432790  25.4559181  18.6873264
  16.2907756  24.0551054  19.7678064  16.4105076  23.8292847  18.0087143
  14.6660000  29.9340000  20.1430000  14.7610651  29.6290860  21.1076167
  14.4450000  31.3450000  19.8740000  13.4964320  31.4666224  19.3472450
  15.5360000  31.9080000  18.9690000  15.2870000  32.7440000  18.1080000
  14.3740000  32.1270000  21.1930000  14.4415350  33.1911688  20.9602669
  15.2210311  31.8817658  21.8284354  13.0870000  31.9190000  21.9730000
  12.0850000  31.4270000  21.4100000  12.9880000  32.2780000  23.1720000
  16.7500000  31.4540000  19.1720000  16.8987220  30.7995949  19.9349534
  17.8890000  31.9610000  18.4280000  17.8153746  33.0478144  18.3970293
  17.9140000  31.4630000  16.9740000  18.6050000  32.0670000  16.1650000
  19.1320000  31.6010000  19.1110000  19.9699742  32.1373487  18.6673750
  19.0645286  31.8487096  20.1725044  19.3117319  30.5282818  19.0191531
  17.2060000  30.3810000  16.6240000  16.6578121  29.9006361  17.3312790
  17.2630000  29.8480000  15.2520000  18.2975946  29.6107772  15.0160635
  16.8570000  30.8800000  14.2050000  17.4030000  30.8750000  13.0890000
  16.3830000  28.6010000  15.0970000  16.2852160  28.3861927  14.0334438
  15.3856321  28.8318095  15.4742277  16.8890000  27.3530000  15.7860000
  16.9330518  27.5205494  16.8584035  15.9700000  26.2110000  15.5280000
  15.4818546  25.9235496  16.4549812  15.1858870  26.4780476  14.8170730
  16.4973953  25.3448424  15.1279113  18.2600000  27.0380000  15.3030000
  18.5703570  26.0775547  15.7152345  18.9697544  27.7684839  15.6633908
  18.2818885  26.9886724  14.2141524  15.8880000  31.7520000  14.5340000
  15.4634290  31.7233987  15.4555543  15.4300000  32.7450000  13.5840000
  15.2521401  32.2563728  12.6271256  16.4780000  33.8400000  13.3180000
  16.2610000  34.6490000  12.4310000  14.1200000  33.3830000  14.0330000
  13.8755868  34.2177871  13.3751900  14.2590000  33.8510000  15.3880000
  14.8102298  34.6324266  15.3974892  12.9550000  32.3980000  14.0120000
  12.9642155  31.8287617  13.0845446  12.0206761  32.9561484  14.0701463
  13.0216105  31.7152910  14.8606478  17.6100000  33.8210000  14.0190000
  17.7703231  33.0920696  14.7082712  18.7120000  34.7070000  13.6610000
  18.3459932  35.7304514  13.5780474  19.3590000  34.3280000  12.3360000
  20.0320000  35.1560000  11.7010000  19.8100000  34.6540000  14.7160000
  19.3606677  34.8091546  15.6972611  20.5183265  35.4630566  14.5292232
  20.5220000  33.4130000  14.7210000  21.3617357  33.5410114  14.2638742
  19.2140000  33.0650000  11.9380000  18.6353151  32.4256425  12.4732242
  19.8690000  32.5650000  10.6980000  19.7541252  31.4848876  10.6611649
  21.3690000  32.8660000  10.7430000  21.9970000  33.0850000   9.7050000
  19.2500000  33.1840000   9.4280000  19.7912096  32.8254585   8.5528331
  19.3511873  34.2673988   9.4508111  17.8030000  32.8010000   9.2120000
  17.4390000  31.6450000   9.2900000  16.9860000  33.7920000   8.7910000
  17.3677603  34.7213552   8.8076141  16.0238171  33.6335392   9.0766394
  21.9450000  32.8150000  11.9280000  21.3714888  32.5187792  12.7009961
  23.3150000  33.2600000  12.1810000  23.7905549  33.5745218  11.2499673
  24.1500000  32.1400000  12.7820000  24.0540000  31.8630000  13.9710000
  23.2710000  34.5020000  13.1130000  22.6405383  35.2625151  12.6501044
  22.8214361  34.2297881  14.0648656  24.6110000  35.1030000  13.3870000
  25.6470000  34.4770000  13.0920000  24.6690000  36.2430000  13.9040000
  24.9190000  31.4420000  11.9510000  24.9518104  31.7133782  10.9802121
  25.6920000  30.2910000  12.3880000  25.0039666  29.5479054  12.7923683
  26.6780000  30.6400000  13.5070000  26.9330000  29.8150000  14.3800000
  26.4310000  29.6600000  11.1990000  26.9884650  28.7837542  11.5351595
  25.7085945  29.3530441  10.4437277  27.1294150  30.3759683  10.7626759
  27.2940000  31.8130000  13.4230000  26.9967803  32.4905765  12.7331759
  28.2560000  32.2470000  14.4530000  29.0270012  31.4795606  14.5638540
  27.5850000  32.4290000  15.8090000  28.1580000  32.1130000  16.8540000
  28.9440000  33.5580000  14.0140000  29.5946921  33.8997614  14.8215929
  29.5628442  33.3763856  13.1336055  28.2064887  34.3366619  13.8110555
  26.3970000  32.9650000  15.8120000  26.0218309  33.3225163  14.9346377
  25.6380000  33.0890000  17.0580000  26.2584042  33.5771157  17.8124504
  25.2540000  31.7170000  17.6090000  25.3290000  31.4440000  18.7850000
  24.3810000  33.9150000  16.8180000  23.8003699  33.4342029  16.0314701
  24.6911336  34.8933680  16.4446782  23.4450000  34.1340000  18.0310000
  23.1134260  33.1717396  18.4233941  23.9863284  34.6709206  18.8113319
  22.2240000  34.9370000  17.6040000  22.5737596  35.8920228  17.2052151
  21.6986610  34.4002962  16.8164065  21.2680000  35.1750000  18.7710000
  20.6156948  34.3017775  18.8771218  21.8617487  35.2638573  19.6862745
  20.4660000  36.4280000  18.5750000  19.8284375  36.5648293  19.3497255
  21.0782880  37.2316926  18.5058006  19.9266335  36.3636182  17.7211260
  24.7920000  30.8500000  16.7160000  24.7216105  31.1333779  15.7438230
  24.2820000  29.5630000  17.1400000  23.6185091  29.7221776  17.9859857
  25.3660000  28.6460000  17.6510000  25.1260000  27.8670000  18.5810000
  23.4850000  28.9010000  15.9990000  24.1299980  28.8342718  15.1213690
  23.2095235  27.8868566  16.2903244  22.2210000  29.6630000  15.6290000
  22.4770296  30.6928943  15.4038637  21.5440000  29.0820000  14.4250000
  20.6618193  29.6735913  14.1748422  22.2604864  29.1434566  13.6209882
  21.2652617  28.0435553  14.6046015  21.2140000  29.6920000  16.7840000
  20.8393740  30.7113119  16.8603406  20.3642587  29.0461005  16.5942943
  21.6460743  29.4091539  17.7376091  26.5560000  28.7360000  17.0860000
  26.7017733  29.3728420  16.3070462  27.6170000  27.7850000  17.4180000
  27.1722035  26.7976044  17.3400014  28.0660000  27.9630000  18.8620000
  28.6150000  27.0310000  19.4570000  28.8110000  27.8480000  16.4430000
  28.4245241  27.9287509  15.4268378  29.5970000  26.5540000  16.5290000
  29.9670896  26.3761839  17.5342461  30.4822268  26.6668852  15.9055925
  29.7320000  29.0770000  16.6950000  29.1572921  29.9859168  16.5869224
  30.1885299  29.0499450  17.6828024  30.5258470  29.0994965  15.9468014
  28.8310000  25.3300000  16.0440000  28.2265677  24.9206561  16.8520447
  28.1873659  25.5894629  15.2024633  29.5305305  24.5633584  15.7304219
  27.8410000  29.1390000  19.4320000  27.4670257  29.9056930  18.8848714
  28.2080000  29.3480000  20.8330000  29.2667679  29.1255557  20.9529601
  27.4860000  28.4530000  21.8100000  27.9230000  28.2810000  22.9390000
  28.0030000  30.8210000  21.2130000  28.1469424  30.9340950  22.2885999
  26.9741505  31.1082889  20.9926051  28.9570000  31.7810000  20.5000000
  28.7383543  32.7950833  20.8424499  28.7478564  31.7458072  19.4304006
  30.4200000  31.4830000  20.7470000  31.2230000  31.5080000  19.7730000
  30.7760000  31.2080000  21.9100000  26.3800000  27.8420000  21.3750000
  26.0533400  28.0225668  20.4305628  25.6240000  26.9150000  22.2120000
  25.5702439  27.2956594  23.2316385  26.2430000  25.5430000  22.2690000
  25.7720000  24.7250000  23.0700000  24.1930000  26.7680000  21.6780000
  23.7315866  25.8896017  22.1297162  24.2156914  26.5782322  20.6051533
  23.2760000  27.9330000  21.9650000  23.2860000  29.0670000  21.1720000
  23.9773532  29.1355521  20.3463624  22.3870000  27.9010000  23.0280000
  22.3411940  27.0306795  23.6689729  22.4340000  30.1260000  21.4240000
  22.4549500  30.9994613  20.7919818  21.5270000  28.9520000  23.2580000
  20.8199883  28.9095174  24.0773770  21.5520000  30.0590000  22.4800000
  20.7080000  31.1140000  22.7130000  21.1835621  31.9295039  22.8573011
  27.2160000  25.2520000  21.4100000  27.5745069  25.9806983  20.8020137
  27.7470000  23.8970000  21.2300000  27.0312524  23.1671275  21.6065899
  29.0760000  23.6630000  21.9500000  29.9660000  24.5270000  21.9520000
  27.9500000  23.6160000  19.7300000  28.5009994  22.6825631  19.6261916
  28.5630527  24.4009439  19.2866364  26.6570000  23.4930000  18.9740000
  25.9650000  24.6110000  18.6370000  26.3370844  25.5791239  18.9271711
  26.1550000  22.2450000  18.5930000  26.7002640  21.3519185  18.8332722
  24.7870000  24.5350000  17.9280000  24.2538451  25.4400640  17.6753561
  24.9740000  22.1420000  17.9110000  24.5953922  21.1676962  17.6323929
  24.2680000  23.2920000  17.5760000  23.3366170  23.2506055  17.0468592
  29.2530000  22.4820000  22.4960000  28.5149487  21.7965286  22.3818204
  30.5520000  21.9750000  22.9550000  31.0163744  22.7212993  23.6012739
  31.4870000  21.6700000  21.7920000  31.0330000  21.5860000  20.6530000
  30.3530000  20.7010000  23.7220000  31.2151051  20.5364459  24.3712782
  29.4601039  20.7607557  24.3468341  30.2660292  19.8431469  23.0500464
  32.8050000  21.6090000  22.0550000  33.1511534  21.7865844  22.9834718
  33.7440000  21.1780000  21.0100000  33.6760332  21.8411916  20.1498510
  33.4600000  19.7610000  20.5090000  33.4460000  19.5220000  19.3030000
  35.1870000  21.2560000  21.5520000  35.2342380  20.6959232  22.4878955
  35.8691538  20.7640406  20.8572875  35.6560000  22.6690000  21.8240000
  34.9638229  23.1572231  22.5148140  36.6301054  22.6183653  22.3156991
  35.7890000  23.4740000  20.5540000  36.1050000  22.8670000  19.4990000
  35.5930000  24.7160000  20.6010000  33.2420000  18.8130000  21.4170000
  33.2477957  19.0608843  22.3912917  32.9060000  17.4090000  21.0710000
  33.3488038  17.1309441  20.1133371  31.3810000  17.3830000  20.9570000
  30.6550000  17.3650000  21.9580000  33.4030000  16.4100000  22.1480000
  32.8879015  16.5916147  23.0926026  34.4675792  16.5925374  22.3043493
  33.2260000  14.8870000  21.7440000  33.7750000  13.9890000  22.4420000
  32.4990000  14.4530000  20.7900000  30.8950000  17.4980000  19.7330000
  31.5290214  17.4660198  18.9500043  29.4560000  17.6340000  19.4740000
  28.9091594  17.0975592  20.2358844  29.1490000  17.0540000  18.1190000
  30.0360000  16.6380000  17.3670000  29.1120000  19.1320000  19.5290000
  29.5153127  19.5436930  20.4537933  27.6990000  19.3090000  19.5660000
  27.5041960  19.7292710  20.4210198  29.6670000  19.9360000  18.3450000
  29.2281207  19.6016561  17.4070337  30.7493552  19.8248270  18.3089895
  29.4371933  20.9897328  18.4802835  27.8450000  17.0300000  17.8030000
  27.1790296  17.4283229  18.4558162  27.3900000  16.6470000  16.4920000
  28.0932613  17.0550536  15.7690001  26.0290000  17.2680000  16.2240000
  25.3150000  17.6550000  17.1440000  27.3680000  15.1240000  16.3570000
  28.3591757  14.7546871  16.6183781  27.2182423  14.8648541  15.3111772
  26.3820000  14.3690000  17.2070000  26.7163366  13.3338532  17.2631713
  26.4011385  14.7723444  18.2205538  24.6450000  14.3620000  16.5950000
  24.8630000  13.5480000  15.0380000  25.3463226  14.2210700  14.3282419
  23.8874453  13.2650810  14.6388962  25.4718245  12.6543598  15.1608023
  25.7280000  17.3810000  14.9390000  26.4074461  17.0733760  14.2492452
  24.4320000  17.8950000  14.4580000  23.6960123  17.8283780  15.2483235
  24.0120000  17.0780000  13.2660000  24.8030000  16.8290000  12.3620000
  24.5660000  19.3530000  14.0250000  25.4389540  19.4318197  13.3756639
  24.7706213  19.9509694  14.9141363  23.3920000  19.9710000  13.3140000
  22.0840000  19.8360000  13.7780000  21.8789750  19.2568631  14.6652717
  23.5750000  20.7480000  12.1870000  24.5743076  20.8787685  11.7937971
  21.0310000  20.4630000  13.1380000  20.0190339  20.3568659  13.5071810
  22.5220000  21.4110000  11.5690000  22.6998865  22.0309222  10.7042724
  21.2660000  21.2650000  12.0430000  20.2400000  21.9570000  11.4080000
  20.2229149  22.8772178  11.6752535  22.7590000  16.6600000  13.2470000
  22.1411493  16.8607666  14.0285120  22.2270000  15.9790000  12.0580000
  22.7791713  16.3066506  11.1750681  20.7560000  16.2830000  11.8370000
  19.9330000  16.0820000  12.7150000  22.3950000  14.4650000  12.1890000
  23.4187587  14.2666538  12.5042892  21.7280437  14.0901950  12.9615780
  22.1390000  13.6900000  10.8880000  21.1097310  13.8424587  10.5878097
  22.7756323  14.0835214  10.0978185  22.3730000  12.2130000  11.0080000
  22.8200000  11.7210000  12.0450000  22.0800000  11.4950000   9.9400000
  21.7739202  11.9703889   9.0907102  22.1591086  10.4993931   9.9937352
  20.4620000  16.7640000  10.6280000  21.2186181  16.9167578   9.9801962
  19.1020000  16.6790000  10.0730000  18.3468557  16.8293596  10.8506048
  19.0160000  15.2520000   9.5370000  19.7380000  14.9050000   8.6080000
  18.9290000  17.7120000   8.9680000  17.9942196  17.5261705   8.4472664
  19.7409302  17.6292693   8.2457829  18.8760000  19.0930000   9.5450000
  17.9720000  19.3960000  10.3300000  19.8630000  19.9300000   9.2190000
  19.8336696  20.8421350   9.6625730  20.6836228  19.5857035   8.7628994
  18.2030000  14.4060000  10.1670000  17.6161858  14.7492311  10.9236368
  18.2990000  12.9910000   9.9550000  19.3221137  12.7068672  10.1892212
  18.1270000  12.4940000   8.5210000  18.6950000  11.4310000   8.2350000
  17.4110000  12.2190000  10.9210000  16.3757308  12.5390414  10.7972013
  17.4630007  11.1548119  10.6886686  17.8260000  12.4180000  12.3730000
  17.6660578  13.4577742  12.6514734  17.1779605  11.8139258  12.9911520
  19.5560000  12.0010000  12.7670000  19.4910000  10.2310000  12.6030000
  19.3169851   9.9689325  11.5593089  20.4401880   9.8042691  12.9267085
  18.6851489   9.8339117  13.2199238  17.4880000  13.1930000   7.5870000
  17.5240000  12.7430000   6.1850000  17.1788009  11.7085486   6.1150102
  18.8920000  12.8670000   5.5160000  19.0290000  12.3800000   4.3860000
  16.5260000  13.6740000   5.4900000  17.0375516  14.5441559   5.0814577
  15.9790198  13.1517533   4.7046475  15.6070000  14.1350000   6.6110000
  15.0721504  15.0537701   6.3749647  14.8964038  13.3636398   6.8635784
  16.5370000  14.3010000   7.7770000  15.9834221  14.2231137   8.7138426
  17.0527917  15.2575923   7.6944991  19.8340000  13.5510000   6.1270000
  19.6702220  13.8425300   7.0825763  21.1130000  13.9370000   5.5230000
  21.2269137  13.4205456   4.5716909  22.2540000  13.5120000   6.4300000
  22.0610000  13.2020000   7.6020000  21.1170000  15.4410000   5.3080000
  20.9932444  15.9161682   6.2826332  22.0834193  15.7590949   4.9184192
  20.0170000  15.9620000   4.3760000  19.0485929  15.5897167   4.7013519
  19.9230000  17.4560000   4.3950000  19.7000773  17.8003336   5.4038402
  20.8636188  17.8928905   4.0584189  19.1238218  17.7834139   3.7280327
  20.2600000  15.4960000   2.9820000  19.5176570  15.9354245   2.3151708
  21.2524935  15.7921685   2.6428311  20.1570128  14.4125475   2.9250454
  23.5030000  13.5180000   5.9250000  24.6140000  13.0390000   6.7630000
  24.3747463  12.0202332   7.0658578  24.9030000  13.9240000   7.9660000
  24.6760000  15.1150000   7.9530000  25.8100000  13.0190000   5.7930000
  26.3388873  13.9742760   5.8279982  26.4933553  12.1966058   6.0077517
  25.1590000  12.8700000   4.4410000  25.8165850  13.2116779   3.6409977
  24.8914890  11.8240276   4.2799532  23.9120000  13.6990000   4.5140000
  24.1484354  14.7479433   4.3303028  23.1725086  13.3319316   3.8025367
  25.4260000  13.3310000   9.0110000  25.7580000  14.0900000  10.2050000
  24.9359125  14.7425310  10.4993776  27.0250000  14.9190000  10.0530000
  27.8850000  14.6400000   9.2280000  25.9610000  12.9970000  11.2560000
  25.0112368  12.7188482  11.6950823  26.6424127  13.3108369  12.0480368
  26.5150000  11.8530000  10.4810000  27.5734684  12.0183556  10.2738542
  26.3710625  10.9060023  11.0019360  25.7210000  11.8950000   9.1660000
  24.7933315  11.3305056   9.2667043  26.3274947  11.5103205   8.3456662
  27.1350000  15.9200000  10.9280000  26.3408994  16.1331436  11.5228281
  28.3550000  16.7140000  11.1170000  29.1040907  16.4505507  10.3684283
  28.8910000  16.4200000  12.5040000  28.1660000  16.5560000  13.4700000
  28.0320000  18.1780000  10.9910000  28.9229552  18.7771065  11.1735428
  27.6694141  18.3818568   9.9821374  27.2551545  18.4572985  11.7045176
  30.1800000  16.1080000  12.5900000  30.7315180  16.1192961  11.7457169
  30.8760000  15.7850000  13.8390000  30.1618795  15.8040419  14.6649291
  31.9430000  16.8400000  14.1400000  32.7740000  17.1550000  13.2630000
  31.5130000  14.3740000  13.8150000  32.0279916  14.2190803  12.8656437
  32.2591695  14.3110466  14.6089752  30.4970000  13.2910000  14.0390000
  29.8630000  12.6710000  12.9850000  30.0886544  12.9808576  11.9721812
  30.1720000  12.8980000  15.3200000  30.6429199  13.3855485  16.1673994
  28.9100000  11.6910000  13.1970000  28.4121641  11.2180391  12.3668356
  29.2110000  11.9050000  15.5450000  28.9609855  11.6279700  16.5590400
  28.5780000  11.3210000  14.4770000  27.6400000  10.3330000  14.7720000
  27.5113696  10.2650346  15.7180997  31.8890000  17.3620000  15.3600000
  31.1681965  17.0453900  16.0015204  32.8360000  18.3660000  15.8230000
  33.0047318  18.2309233  16.8922638  33.7924630  18.2740724  15.3074528
  32.2740000  19.7580000  15.5820000  31.5380000  19.9670000  14.5940000
  32.6640000  20.7200000  16.4300000  33.2437272  20.4656264  17.2265710
  32.0620000  22.0140000  16.4060000  30.9819642  21.8833888  16.4875802
  32.2760000  22.7580000  15.0930000  31.3590000  23.4210000  14.5980000
  32.5160000  22.8390000  17.6190000  33.5820654  23.0570554  17.5115680
  32.3945414  22.1901699  18.4845527  31.8030000  24.0610000  17.8830000
  30.7384065  23.8569018  18.0022837  31.9578015  24.7712569  17.0700124
  32.3690000  24.6290000  19.1850000  33.4489149  24.7616897  19.0714590
  32.2463966  23.8716805  19.9611027  31.7990000  25.8470000  19.7130000
  31.1016265  25.7464402  20.4375258  32.1810000  27.0730000  19.3770000
  33.0420000  27.2660000  18.3890000  33.4831630  26.4703954  17.9584099
  33.2450803  28.1969345  18.0748440  31.6590000  28.1090000  20.0070000
  31.9000730  29.0622647  19.7507731  30.9900504  27.9546451  20.7326239
  33.4540000  22.6610000  14.4880000  34.2257783  22.2589276  14.9958526
  33.7170000  23.3330000  13.2360000  33.4594399  24.3890610  13.3605489
  32.7970000  22.8210000  12.1100000  32.2380000  23.6170000  11.3460000
  35.1780000  23.2790000  12.8790000  35.5342050  22.2495045  12.9553044
  35.2925755  23.5985556  11.8415943  36.0330000  24.1860000  13.7410000
  35.5450000  25.0290000  14.5170000  37.2500000  24.0940000  13.6610000
  32.6430000  21.5090000  11.9980000  33.0905884  20.8979576  12.6642708
  31.7710000  20.9300000  10.9710000  32.0886130  21.3088558   9.9969280
  30.3300000  21.3510000  11.1710000  29.6010000  21.6150000  10.2030000
  31.8850000  19.4270000  10.9490000  31.5222248  19.0143411  11.8907096
  31.2875699  19.0274007  10.1285834  32.9252000  19.1321258  10.8045608
  29.9000000  21.4290000  12.4250000  30.5317223  21.1797774  13.1799220
  28.5460000  21.8830000  12.7400000  27.8343619  21.2781695  12.1778819
  28.3640000  23.3330000  12.2600000  27.4020000  23.6520000  11.6050000
  28.2200000  21.7320000  14.2240000  28.9960103  22.2272620  14.8061928
  26.9320000  22.4190000  14.5650000  26.7285747  22.3058673  15.6298426
  26.9888887  23.4888975  14.3712813  26.1052987  21.9833130  14.0033292
  28.1980000  20.2860000  14.6420000  27.5744828  20.1584827  15.5279811
  27.8017069  19.6552030  13.8466417  29.1956124  19.9527642  14.8968405
  29.3320000  24.2010000  12.6100000  30.1221131  23.8974827  13.1757739
  29.2490000  25.5830000  12.1960000  28.3248128  26.0021278  12.5948553
  29.1920000  25.7340000  10.6680000  28.4080000  26.5200000  10.1520000
  30.4260000  26.4000000  12.7690000  31.3486162  26.1406628  12.2479649
  30.5441653  26.1522717  13.8187373  30.1410000  27.8980000  12.6190000
  30.0725315  28.1392807  11.5561878  29.1687561  28.1109976  13.0702004
  31.1760000  28.8100000  13.2460000  32.1580000  28.2930000  13.8190000
  30.9800000  30.0480000  13.1450000  30.0250000  24.9790000   9.9720000
  30.6956695  24.4028170  10.4758300  30.0840000  25.0270000   8.5010000
  30.2170594  26.0650013   8.1924577  28.7820000  24.5530000   7.8850000
  28.3220000  25.0950000   6.8860000  31.2540000  24.2210000   7.9730000
  31.1944261  23.2204374   8.4061057  31.1779592  24.1311526   6.8878999
  32.5900000  24.8560000   8.3160000  32.5816275  25.2248946   9.3410780
  32.7706411  25.7049374   7.6568285  33.7220000  23.8740000   8.1820000
  33.5640000  22.8030000   7.5800000  34.8770000  24.2490000   8.6890000
  35.6191913  23.5749070   8.6452346  34.9310423  25.0867290   9.2418963
  28.1600000  23.5690000   8.5200000  28.6024874  23.1527772   9.3329429
  26.8510000  23.0720000   8.0710000  26.9084913  22.8295238   7.0093601
  25.7670000  24.1290000   8.2370000  25.0280000  24.4210000   7.3170000
  26.4620000  21.8000000   8.8170000  26.4770624  21.9896116   9.8898468
  27.4010000  20.7860000   8.5100000  28.2347588  21.0150641   8.9492904
  25.0610000  21.3240000   8.4290000  24.7504616  20.5618237   9.1441305
  24.3186409  22.1190738   8.4435694  25.0950002  20.8711084   7.4366418
  25.7330000  24.7460000   9.4110000  26.4072611  24.4971668  10.1306773
  24.7870000  25.7980000   9.6510000  23.7865854  25.4257825   9.4374012
  25.0070000  26.9700000   8.6780000  24.0540000  27.5590000   8.1650000
  24.8510000  26.2430000  11.0880000  25.8910614  26.4595576  11.3381227
  24.2926651  27.1744641  11.1894085  24.2920000  25.2460000  12.1130000
  24.7709546  24.2817583  11.9473601  24.6450000  25.6740000  13.5490000
  24.2996775  24.9153350  14.2514972  25.7265562  25.7732190  13.6498132
  24.1708352  26.6274659  13.7787517  22.7740000  25.0270000  11.9590000
  22.2413928  25.9677819  12.1020541  22.5428883  24.6239047  10.9752364
  22.4425541  24.3071602  12.7067766  26.2540000  27.3580000   8.4550000
  27.0277371  26.9215458   8.9485511  26.5110000  28.4740000   7.5410000
  25.9752125  29.3559393   7.8955147  25.9800000  28.1450000   6.1390000
  25.4430000  29.0470000   5.4700000  27.9920000  28.8000000   7.4950000
  28.1603786  29.6456609   6.8270075  28.3460607  29.0581921   8.4943899
  28.5542977  27.9384341   7.1319663  26.1730000  26.9180000   5.6830000
  26.7015137  26.2522081   6.2376825  25.6060000  26.4940000   4.4170000
  25.9372238  25.4768288   4.2099056  25.9720653  27.1461423   3.6224415
  24.0880000  26.5130000   4.3820000  23.4520000  27.0190000   3.4310000
  23.4950000  25.9600000   5.4120000  24.0676460  25.5469096   6.1417283
  22.0600000  25.9500000   5.5590000  21.6381210  25.3165529   4.7775677
  21.4360000  27.3210000   5.3960000  20.4790000  27.5130000   4.6580000
  21.6530000  25.3640000   6.9400000  21.9110579  24.3043970   6.9664813
  22.2638010  25.8515212   7.6960387  20.1830000  25.5530000   7.3800000
  19.9057146  26.6008082   7.2780086  19.3370000  24.7880000   6.4720000
  19.3288598  25.2322887   5.4788431  18.3314062  24.7713057   6.8834585
  19.6831258  23.7570149   6.4046225  19.9560000  25.2360000   8.8520000
  20.2046600  24.1937111   9.0482670  20.5822148  25.8864132   9.4635591
  18.9113248  25.4155257   9.1077173  22.0150000  28.2930000   6.1010000
  22.7862349  28.0633879   6.7205005  21.5060000  29.6480000   6.0950000
  20.4213584  29.5946802   6.0971766  21.8500000  30.4140000   4.8270000
  21.3800000  31.5310000   4.6500000  21.9260000  30.4020000   7.3550000
  23.0159569  30.4220502   7.4064485  21.5789007  31.4337202   7.2854609
  21.3540000  29.8180000   8.6160000  22.1780000  29.5460000   9.6710000
  23.2380739  29.7344391   9.5876090  20.0030000  29.5540000   8.7490000
  19.3214722  29.7883675   7.9426518  21.6480000  29.0200000  10.8830000
  22.3292488  28.7602170  11.6676313  19.4920000  29.0260000   9.9180000
  18.4304768  28.8566865  10.0048192  20.3270000  28.7640000  10.9780000
  19.9165153  28.3555467  11.8910330  22.6460000  29.8220000   3.9370000
  23.0642925  28.9243594   4.1540228  22.8510000  30.3890000   2.6110000
  22.9068963  31.4759666   2.6793754  21.6680000  30.0580000   1.7030000
  21.3760000  30.7800000   0.7450000  24.1690000  29.8830000   2.0430000
  24.1536933  28.8005551   1.9359097  25.2300000  30.2680000   2.9320000
  24.8370469  30.5728300   3.7533375  24.4730000  30.5120000   0.6850000
  25.4970433  30.2691772   0.4008658  23.8035769  30.1068373  -0.0731686
  24.3592730  31.5952306   0.7338097  21.0130000  28.9370000   1.9880000
  21.2962801  28.3641781   2.7748406  19.9160000  28.4950000   1.1110000
  19.9019188  29.0879852   0.1967839  18.5370000  28.6970000   1.7130000
  17.5690000  28.7740000   0.9580000  20.0790000  27.0260000   0.6290000
  19.2563443  26.7920309  -0.0485055  21.3450000  26.8570000  -0.1100000
  21.3935406  27.5854393  -0.9198355  22.2095197  27.0017582   0.5409114
  21.3950788  25.8583677  -0.5456126  20.0850000  26.0630000   1.6870000
  20.9489643  26.1934359   2.3405109  19.1801768  26.1507487   2.2859490
  20.1106891  25.0550901   1.2708176  18.4320000  28.7460000   3.0550000
  19.2377318  28.6470042   3.6658916  17.1130000  28.9490000   3.5970000
  16.5000284  29.4757872   2.8710244  17.1320000  29.8310000   4.8160000
  18.1720000  30.0480000   5.4320000  16.3780000  27.6990000   3.9650000
  16.3512496  27.0797712   3.0711693  15.3475088  27.9208435   4.2426226
  16.9810000  27.0280000   5.0080000  16.8367145  27.5695429   5.9439922
  18.0495930  26.9454331   4.8243664  16.3040000  25.2510000   5.2480000
  16.5220000  24.5950000   3.7920000  16.4109797  23.5124220   3.8690129
  15.7734535  24.9701380   3.0934436  17.5228059  24.8237750   3.4229581
  15.9770000  30.4020000   5.0960000  15.1788321  30.1890916   4.5064896
  15.7470000  31.1730000   6.3160000  16.6791343  31.3347352   6.8570985
  14.7720000  30.4100000   7.2000000  13.7530000  29.9120000   6.7130000
  15.1460000  32.5110000   5.9620000  14.2405813  32.3540987   5.3739976
  15.8580695  33.0853570   5.3691266  14.8000000  33.2490000   7.1450000
  15.6233649  33.6021167   7.5094627  15.0510000  30.3620000   8.4840000
  15.8895741  30.8243166   8.8218554  14.0950000  29.8860000   9.4730000
  13.3911718  29.1803652   9.0295474  13.3410000  31.1510000   9.9330000
  13.8810000  32.0200000  10.6150000  14.7730000  29.2250000  10.6680000
  15.4610695  29.9394833  11.1250202  15.5740000  27.9990000  10.2220000
  16.2333357  28.2665571   9.3968074  14.8858638  27.2324501   9.8703224
  13.7180000  28.8280000  11.7000000  13.0146132  28.1136725  11.2676301
  14.1860961  28.3734795  12.5719540  13.1631052  29.6961080  12.0518496
  16.4390000  27.3840000  11.3130000  15.8152994  26.8955023  12.0615656
  17.0924204  26.6325078  10.8691182  17.0518040  28.1501875  11.7881494
  12.1080000  31.2630000   9.4940000  11.7162425  30.5222691   8.9219698
  11.3240000  32.4650000   9.7350000  11.9750611  33.3381586   9.8173170
  10.5240000  32.3800000  11.0070000  10.1220000  33.4280000  11.5050000
  10.3690000  32.6870000   8.5890000   9.6076135  33.4084752   8.8904295
   9.8574767  31.7514029   8.3542865  11.0290000  33.2450000   7.3180000
  12.1610000  33.7990000   7.3690000  10.4280000  33.1740000   6.2290000
  10.2710000  31.1880000  11.5510000  10.6257979  30.3546662  11.1005562
   9.5230000  31.0580000  12.7860000   9.9138470  31.7758779  13.5094839
   9.7240000  29.6620000  13.3250000   9.9600000  28.7050000  12.5720000
   8.0300000  31.3170000  12.5810000   7.4581948  30.4000934  12.6916770
   7.8419634  31.7209505  11.5848646   7.6862955  32.0442625  13.3171040
   9.6390000  29.5250000  14.6330000   9.4569902  30.3358640  15.2080776
   9.6950000  28.2440000  15.3060000   9.5199118  27.4231708  14.6103256
   8.6510000  28.2110000  16.3910000   8.5320000  29.1880000  17.1750000
  11.0250000  28.0380000  15.9860000  11.1865181  28.8355068  16.7129715
  11.0420000  26.7140000  16.7380000  10.6679104  25.9160552  16.0980265
  12.0586398  26.4698071  17.0464446  10.4274361  26.7720901  17.6348586
  12.2020000  28.0800000  15.0090000  12.2873182  29.0681516  14.5593162
  13.1296808  27.8688534  15.5404989  12.0557196  27.3369005  14.2235251
   7.8390000  27.1660000  16.4630000   7.9267244  26.4222313  15.7727385
   6.8870000  26.9920000  17.5480000   7.0816644  27.7263555  18.3309310
   7.0990000  25.6160000  18.1250000   7.0320000  24.6120000  17.3930000
   5.4430000  27.1430000  17.1290000   5.3221484  28.1396666  16.7066617
   5.1719394  26.3934680  16.3841880   4.5450000  27.0170000  18.3740000
   4.9705540  27.6318922  19.1714065   4.5614439  25.9791814  18.7149036
   3.1140000  27.4270000  18.1930000   2.7570000  27.9190000  17.0990000
   2.3330000  27.2120000  19.1730000   7.3580000  25.5550000  19.4300000
   7.2998930  26.4036494  19.9748740   7.5570000  24.3120000  20.1300000
   7.7619873  23.5155025  19.4167728   6.2840000  23.9420000  20.8730000
   5.8710000  24.6460000  21.8020000   8.7520000  24.3630000  21.0830000
   8.6056132  25.1635658  21.8094621   9.9770000  24.6210000  20.3430000
   9.8798430  25.4749671  19.9137496   8.9770000  23.0690000  21.8200000
   9.9145965  23.1280163  22.3731204   9.0180807  22.2368733  21.1163126
   8.1692460  22.8952276  22.5310899   5.6010000  22.9040000  20.4320000
   5.9778258  22.3540204  19.6683922   4.3690000  22.4460000  21.0460000
   3.7413273  23.3105618  21.2728582   4.6070000  21.7070000  22.3490000
   3.8870000  21.9090000  23.3320000   3.5900000  21.5200000  20.1180000
   4.1344935  20.5790475  20.0211192   2.6318320  21.2899905  20.5851771
   3.3250000  22.0680000  18.7580000   3.7300000  21.3340000  17.6230000
   4.2237254  20.3810820  17.7482508   2.6820000  23.2590000  18.5470000
   2.3373765  23.8481857  19.3874887   3.5230000  21.8160000  16.3600000
   3.8121983  21.2015210  15.5256021   2.5020000  23.7620000  17.2420000
   2.0224134  24.7233008  17.1031701   2.8990000  23.0210000  16.1540000
   2.7287885  23.3942993  15.1549180   5.6010000  20.8340000  22.3560000
   6.1514400  20.7363473  21.5114715   5.9120000  19.9650000  23.4670000
   5.4242678  20.3328878  24.3680636   7.4100000  19.9370000  23.7070000
   8.2010000  19.8970000  22.7540000   5.4500000  18.5300000  23.2200000
   5.6275296  17.9544568  24.1267585   6.0475445  18.0857389  22.4239029
   4.0040000  18.4150000  22.8700000   3.5540000  17.6140000  21.8430000
   4.1278548  17.0747531  21.1863338   2.8920000  18.9070000  23.4780000
   2.8824900  19.5575456  24.3411583   2.2230000  17.6600000  21.8150000
   1.5934723  17.1263867  21.1187641   1.7930000  18.4270000  22.8080000
   7.8180000  19.9720000  24.9720000   7.1347953  20.0638099  25.7179689
   9.2130000  19.8000000  25.3530000   9.7119017  19.2926269  24.5404693
   9.2300000  18.8980000  26.5640000   8.3660000  18.9950000  27.4580000
   9.9500000  21.1510000  25.6050000   9.8074534  21.7622011  24.7119405
  11.4400000  20.9400000  25.7960000  11.6148052  20.4324778  26.7458153
  11.8118969  20.2946530  25.0030920   9.3700000  21.9220000  26.8070000
   8.2840505  21.8614212  26.8212810   9.7323866  21.5004467  27.7484874
   9.6558255  22.9717575  26.7607645  12.2700000  22.1860000  25.7710000
  13.3103110  21.9325363  25.9712615  11.9364045  22.8908270  26.5311724
  12.2048551  22.6537761  24.7884629  10.1640000  17.9850000  26.6120000
  10.8435332  17.9561078  25.8587887  10.3840000  17.1140000  27.7550000
  10.1683148  17.6536960  28.6799772   9.7430808  16.2372352  27.6889109
  11.8160000  16.6730000  27.8010000  12.6290000  16.9870000  26.9270000
  12.1660000  15.9540000  28.8500000  11.5033251  15.7897368  29.6058008
  13.5590000  15.5480000  29.0280000  13.9212403  15.1845967  28.0698724
  13.6790000  14.4260000  30.0180000  12.8410000  14.2840000  30.9130000
  14.4350000  16.7050000  29.4750000  14.3819340  17.5103078  28.7432521
  15.4713058  16.3765915  29.5517953  14.0270000  17.2010000  30.7320000
  13.2204817  17.7669093  30.5806518  14.7590000  13.6840000  29.8960000
  15.3907498  13.8981548  29.1282375  15.2130000  12.7050000  30.9020000
  15.1083210  13.1207433  31.9050200  16.6360000  12.3420000  30.6390000
  17.0440000  12.2020000  29.4690000  14.4430000  11.3450000  30.8180000
  14.8977700  10.6385482  31.5123261  14.5387264  10.9406047  29.8110880
  13.0900000  11.4340000  31.1600000  12.8099591  12.3676872  31.1675659
  17.3580000  12.0580000  31.7190000  16.9171883  12.0577976  32.6275853
  18.7080000  11.4800000  31.5970000  19.1725901  11.4864330  32.5855212
  19.6690000  12.1890000  30.6430000  20.4690000  11.5230000  29.9770000
  18.6690000  10.0320000  31.1200000  19.5172375   9.4832291  31.5336133
  18.6904068   9.9676077  30.0357884  17.3920000   9.3240000  31.4820000
  17.1000000   9.1000000  32.6330000  16.6270000   8.9420000  30.4760000
  15.8821179   8.2960671  30.7042872  16.8694884   9.1432332  29.5263575
  19.6440000  13.5110000  30.5710000  18.9965461  14.0086407  31.1595684
  20.5760000  14.2860000  29.7870000  21.5384556  13.7746450  29.7387308
  20.7377624  15.2446880  30.2821744  20.1290000  14.5840000  28.3590000
  20.8620000  15.2280000  27.6450000  18.9070000  14.1200000  28.0120000
  18.3611123  13.5619454  28.6570246  18.3740000  14.3950000  26.6650000
  19.0963335  14.9642831  26.0862925  17.0880000  15.2090000  26.7840000
  16.2140000  14.9430000  27.6360000  18.0820000  13.0860000  25.9200000
  17.3052753  12.5369819  26.4529077  17.6338050  13.3844871  24.9706326
  19.2830000  12.2050000  25.6060000  20.2108557  12.7625321  25.7139864
  19.3020000  11.0160000  26.5420000  19.7726350  10.1488440  26.0783074
  18.2976864  10.7308559  26.8551510  19.8788143  11.2855166  27.4273369
  19.2040000  11.6620000  24.2140000  19.9693595  10.9057001  24.0454452
  18.2186797  11.2265971  24.0314886  19.3673020  12.4735320  23.5070482
  16.9550000  16.1910000  25.9050000  17.7237668  16.3470133  25.2600978
  15.7990000  17.0360000  25.7780000  15.0783195  16.8148102  26.5622706
  15.1480000  16.7630000  24.4130000  15.8470000  16.6400000  23.4350000
  16.1990000  18.5320000  25.8830000  16.9122657  18.7475431  25.0939134
  15.0070000  19.4300000  25.6740000  14.1969951  19.1341419  26.3411251
  14.6609265  19.3775247  24.6423384  15.2702418  20.4639801  25.8882291
  16.8660000  18.8610000  27.1910000  16.2012678  18.6377349  28.0235096
  17.1203621  19.9206128  27.2200256  17.7882554  18.2905060  27.3042651
  13.8240000  16.7030000  24.3760000  13.3123793  16.8596952  25.2388068
  13.0400000  16.4260000  23.1680000  13.7152623  16.3066694  22.3300135
  12.1050000  17.5850000  22.9140000  11.4680000  18.0740000  23.8510000
  12.2480000  15.1210000  23.3380000  11.4738504  15.2748468  24.0916031
  11.7467360  14.8926020  22.3964949  13.0830000  13.9400000  23.7480000
  13.2850000  13.6200000  25.0770000  12.8236166  14.2447182  25.8302135
  13.6880000  13.1160000  22.7980000  13.5575122  13.3275631  21.7452143
  14.0670000  12.5550000  25.4870000  14.2091270  12.3550842  26.5377737
  14.4670000  12.0280000  23.1970000  14.9294114  11.3930796  22.4557716
  14.6760000  11.7530000  24.5350000  15.4210000  10.6590000  24.8710000
  15.3003894  10.4152334  25.7903299  12.0020000  18.0030000  21.6280000
  12.5601184  17.5355566  20.9180020  11.1210000  19.1020000  21.2000000
  10.4812364  19.3993570  22.0283094  10.2350000  18.6710000  20.0400000
  10.7830000  18.2750000  18.9850000  11.8750000  20.3660000  20.7120000
  11.1488421  21.1223908  20.4113419  12.7100000  20.0610000  19.5980000
  13.5015800  20.5910884  19.7232361  12.7660000  20.9530000  21.7840000
  12.1621686  21.2075178  22.6551044  13.5336158  20.2383556  22.0820471
  13.2406877  21.8610204  21.4104135   8.9230000  18.7850000  20.1780000
   8.5492931  19.1401791  21.0541295   7.9970000  18.5730000  19.0680000
   8.4954521  18.0416536  18.2553821   7.5880000  19.9440000  18.5720000
   7.0200000  20.7200000  19.3670000   6.7880000  17.7510000  19.5050000
   7.1389847  16.8944551  20.0816611   6.1401234  18.3466992  20.1480920
   5.9880000  17.2400000  18.3160000   5.5019962  18.0907944  17.8333563
   6.6934889  16.8140709  17.5996091   4.9400000  16.1890000  18.6240000
   4.5290000  16.0620000  19.7980000   4.5500000  15.4610000  17.6620000
   7.9080000  20.2470000  17.3210000   8.3249177  19.5396950  16.7161458
   7.8220000  21.6070000  16.8380000   7.0083251  22.0990973  17.3740534
   7.4180000  21.7100000  15.4080000   7.3470000  20.7060000  14.6770000
   9.0680000  22.3810000  17.1600000   8.9187053  23.4418791  17.0244203
   9.2779158  22.2308415  18.2212837  10.1890000  22.1180000  16.4580000
  10.0961748  22.5393794  15.4544399  10.3440575  21.0414752  16.3686183
  11.5000000  22.7670000  17.2380000  11.8111649  22.1410182  18.0739001
  11.2660661  23.7721124  17.5954614  12.4620000  22.8540000  16.2030000
  12.2772633  23.5455187  15.4691207  13.4590000  22.0080000  15.9770000
  13.7860000  21.0280000  16.8230000  13.1445245  20.7857270  17.5563817
  14.4758957  20.3535833  16.4825370  14.2070000  22.2100000  14.9030000
  14.9646434  21.5709307  14.6436630  13.9361064  22.9457384  14.2434989
   7.1570000  22.9400000  14.9880000   7.2064815  23.6949441  15.6674577
   7.0940000  23.2940000  13.5730000   7.4285271  22.4530672  12.9803847
   8.0650000  24.4610000  13.3590000   8.0690000  25.4200000  14.1310000
   5.6760000  23.6790000  13.1230000   5.2604008  24.3623756  13.8642763
   5.6760000  24.3900000  11.8040000   6.1973405  23.7896278  11.0568898
   4.6485586  24.5464341  11.4809816   6.1517191  25.3676779  11.8840765
   4.7730000  22.4830000  13.0480000   4.9348700  21.8452703  13.9089121
   5.0087011  21.9029462  12.1539223   3.7312733  22.8024101  13.0093321
   8.8870000  24.3220000  12.3130000   8.8453376  23.4799050  11.7482545
   9.7400000  25.4090000  11.8940000   9.6882512  26.2417142  12.5939144
   9.2590000  25.8660000  10.5310000   9.0260000  25.0580000   9.6320000
  11.1930000  25.0000000  11.7610000  11.7464635  25.8406144  11.3401819
  11.2678455  24.1569106  11.0719825  11.8600000  24.6210000  13.0620000
  11.2120000  24.5450000  14.1140000  13.1020000  24.3620000  13.0740000
   9.0790000  27.1820000  10.3620000   9.3485411  27.8075617  11.1152401
   8.7040000  27.7440000   9.0560000   8.1221342  27.0201147   8.4855303
  10.0010000  28.0590000   8.2970000  10.7920000  28.8660000   8.7500000
   7.8660000  29.0180000   9.2190000   8.4355601  29.7659190   9.7710828
   7.5310000  29.5840000   7.8530000   7.0509034  28.8208880   7.2375166
   8.4331644  29.9365226   7.3516646   6.8591451  30.4359295   7.9573377
   6.5990000  28.7300000   9.9930000   5.9611433  29.6124281  10.0071686
   6.8608048  28.4591344  11.0124413   6.0684059  27.8982985   9.5351691
  10.1750000  27.3700000   7.1720000   9.4695862  26.7011965   6.8772743
  11.4010000  27.5070000   6.3920000  12.1499184  28.1002896   6.9151303
  11.0900000  28.1400000   5.0440000  10.1190000  27.7660000   4.3720000
  11.9650000  26.0900000   6.1160000  11.1215708  25.4134285   5.9619944
  12.4879275  26.1122491   5.1592145  12.9080000  25.4230000   7.1220000
  13.0271801  24.3889063   6.7972752  14.2570000  26.0310000   7.1100000
  14.2736314  26.8619510   7.8103389  14.4177740  26.5088609   6.1531728
  14.9937176  25.3022137   7.4443066  12.3700000  25.3960000   8.5390000
  11.4370189  24.8310089   8.5570766  12.1966938  26.4059036   8.9097977
  13.0817658  24.8957829   9.1981129  11.9280000  29.0750000   4.6440000
  12.6522083  29.3799520   5.2916347  11.7780000  29.7670000   3.3490000
  10.9317519  29.3601491   2.7980865  13.0300000  29.5370000   2.5160000
  14.1310000  29.8070000   2.9710000  11.5020000  31.2420000   3.5800000
  12.2966970  31.6489447   4.2077558  10.5687879  31.3273794   4.1371841
  11.3990000  32.0830000   2.2840000  10.7872454  31.5494910   1.5546744
  12.3961859  32.2179671   1.8632054  10.7510000  33.4650000   2.5300000
  10.8283237  34.0891726   1.6385556   9.6915633  33.3182839   2.7525740
  11.3870000  34.0700000   3.6740000  11.0079549  33.8271748   4.5996565
  12.5300000  34.7550000   3.6700000  13.1340000  35.1050000   2.5250000
  13.9496637  35.6841536   2.5718623  12.8153670  34.6735964   1.6669460
  13.0640000  35.1030000   4.8130000  13.8677443  35.6886279   4.8725925
  12.6598031  34.6916276   5.6735626  12.8360000  29.0210000   1.3150000
  11.8858592  28.8581153   0.9959656  13.9420000  28.7040000   0.4050000
  14.7998721  28.3351448   0.9713672  14.3330000  29.9840000  -0.3140000
  13.5440000  30.5390000  -1.0930000  13.5350000  27.6450000  -0.5890000
  12.6081566  27.9379367  -1.0819518  14.3094976  27.5122576  -1.3426929
  13.3802476  26.6990719  -0.0702238  15.5390000  30.4640000  -0.0540000
  16.1800952  29.9370888   0.5310724  15.9740000  31.7200000  -0.6470000
  15.2232367  32.4666513  -0.3867897  15.9830000  31.7270000  -2.1740000
  15.5880000  32.7620000  -2.7580000  17.3090000  32.2040000  -0.0350000
  17.5620272  33.1665129  -0.4828955  18.0944020  31.4979865  -0.3088681
  17.2970000  32.3560000   1.4750000  17.0943815  31.3877961   1.9255468
  18.6600000  32.7750000   1.9330000  19.3997289  32.0479327   1.6060568
  18.9186303  33.7529706   1.5274437  18.6938127  32.8142075   3.0227316
  16.2360000  33.3200000   1.9690000  16.3116786  34.2635016   1.4286079
  15.2483857  32.8823784   1.8285315  16.3822109  33.4989337   3.0337991
  16.3580000  30.6250000  -2.8440000  16.3830000  30.6350000  -4.3110000
  17.0351359  31.4385771  -4.6556524  15.0140000  30.8000000  -4.9480000
  14.9050000  31.2700000  -6.0830000  17.0060000  29.2660000  -4.6740000
  16.2155968  28.5520706  -4.9114379  17.6747891  29.3571211  -5.5308647
  17.7200000  28.7920000  -3.4970000  17.7610536  27.7042257  -3.4508564
  18.7300586  29.2051832  -3.4998044  16.9490000  29.3820000  -2.3210000
  17.6334391  29.5712419  -1.4949721  16.1614479  28.6924779  -2.0206561
  13.9590000  30.3610000  -4.2750000  14.0728432  29.9579119  -3.3566203
  12.6310000  30.3330000  -4.8920000  12.6804664  30.6334424  -5.9378758
  11.6000000  31.2570000  -4.2390000  10.5310000  31.4860000  -4.8190000
  12.0780000  28.8880000  -4.8720000  11.1467203  28.8511124  -5.4384672
  11.8150000  28.5370000  -3.5160000  11.6344337  27.5842466  -3.5281163
  13.0770000  27.8790000  -5.4840000  13.9298319  27.7294375  -4.8237360
  12.5863032  26.9215081  -5.6250888  13.4176809  28.2374088  -6.4552126
  11.8830000  31.7080000  -3.0360000  12.7487271  31.4231403  -2.5930851
  10.9540000  32.5220000  -2.2960000  11.4902449  33.0040294  -1.4802503
  10.5484481  33.2971851  -2.9475054   9.7930000  31.7550000  -1.6980000
   8.8820000  32.3610000  -1.1530000   9.7850000  30.4330000  -1.7990000
  10.5708570  29.9671906  -2.2403873   8.6700000  29.6320000  -1.2920000
   7.7666029  30.2428086  -1.2516025   8.9530000  29.1320000   0.1280000
  10.1020000  28.8990000   0.4790000   8.4060000  28.4500000  -2.2420000
   7.6564648  27.7979971  -1.7886545   9.3307715  27.8815124  -2.3451024
   7.9200000  28.8490000  -3.6410000   6.9949493  29.4158950  -3.5238553
   8.6583492  29.4944767  -4.1180669   7.6640000  27.6800000  -4.5270000
   7.1046426  26.9300552  -3.9640155   8.6122240  27.2340201  -4.8373899
   6.8470000  28.0740000  -5.7520000   7.4800655  28.6879271  -6.3998377
   6.0002875  28.6824187  -5.4242127   6.3490000  26.8840000  -6.5080000
   5.8462839  27.1327158  -7.3438656   5.8129430  26.2574691  -5.9243725
   7.1629063  26.3235448  -6.8107013   7.8940000  29.0010000   0.9000000
   6.9809200  29.1956361   0.5246489   7.9980000  28.5770000   2.2890000
   9.0381894  28.4078625   2.5186861   7.2510000  27.2840000   2.5460000
   6.3340000  26.9190000   1.8030000   7.4550000  29.6530000   3.2480000
   7.5350766  29.2967178   4.2767171   6.4052563  29.8380670   3.0150995
   8.1600000  30.8620000   3.1310000   8.2941864  31.2286147   4.0127650
   7.5790000  26.6560000   3.6590000   8.3711040  27.0049645   4.1925800
   6.9520000  25.4150000   4.1120000   5.9123280  25.3915306   3.7824442
   6.9980000  25.3410000   5.6080000   8.0120000  25.6390000   6.2360000
   7.7130000  24.2240000   3.4810000   8.7413899  24.2260198   3.8452175
   7.7424683  24.3618663   2.4001511   7.0740000  22.8680000   3.7540000
   5.8580000  22.5270000   3.2090000   5.3608169  23.2191387   2.5436737
   7.6610000  21.9480000   4.6020000   8.6051039  22.1908773   5.0702352
   5.2900000  21.2880000   3.4380000   4.3549697  21.0131708   2.9742978
   7.0810000  20.7050000   4.8560000   7.5531669  19.9890458   5.5093337
   5.8780000  20.4050000   4.2900000   5.2780000  19.1610000   4.5430000
   5.8612831  18.4715113   4.8761828   5.9160000  24.8280000   6.1930000
   5.1652803  24.5015166   5.6057781   5.8110000  24.5840000   7.6170000
   6.4798936  25.2498632   8.1684325   6.2420000  23.1380000   7.8800000
   5.5150000  22.2050000   7.5600000   4.3920000  24.7910000   8.1070000
   4.3091929  24.3941072   9.1171141   3.6924975  24.2477869   7.4712122
   3.9980000  26.2690000   8.1390000   4.6580000  27.1020000   7.5870000
   2.9260000  26.5750000   8.8470000   2.3705324  25.8173454   9.2020143
   2.5890208  27.5040306   8.6845661   7.4540000  22.9800000   8.4000000
   8.0014521  23.8018628   8.6468526   8.0750000  21.6730000   8.5960000
   7.6571665  20.9809270   7.8646385   7.8480000  21.1140000  10.0000000
   8.2540000  21.7310000  10.9920000   9.5770000  21.8160000   8.3440000
   9.7191942  22.3164026   7.3846207   9.9962066  22.4690397   9.1123287
  10.3800000  20.5200000   8.3180000  10.2766807  20.0372806   9.2866038
   9.8720000  19.5290000   7.2760000   8.8742480  19.1748866   7.5305933
  10.5292117  18.6631367   7.2348665   9.8616076  20.0045198   6.2989661
  11.8600000  20.8370000   8.1370000  12.0312828  21.2372988   7.1376453
  12.4474849  19.9288447   8.2667041  12.1897307  21.5739999   8.8666977
   7.1710000  19.9680000  10.0630000   6.8013375  19.5611330   9.2157363
   6.9310000  19.2690000  11.3180000   6.6855828  19.9868273  12.1018472
   8.1860000  18.4950000  11.7280000   8.6520000  17.6360000  10.9670000
   5.7670000  18.3060000  11.1530000   5.6159287  17.7596762  12.0846689
   5.9983794  17.5866018  10.3648413   4.5570000  18.9860000  10.8190000
   4.2834674  19.5196389  11.5679832   8.6810000  18.7480000  12.9320000
   8.2142862  19.4280077  13.5282730   9.9410000  18.2080000  13.3970000
  10.2761921  17.4036851  12.7428987   9.8120000  17.6670000  14.8050000
   9.1730000  18.2940000  15.6730000  11.0380000  19.3260000  13.4260000
  10.6663199  20.1317355  14.0623534  11.2660000  19.9030000  12.0480000
  11.8373756  19.2013550  11.4396632  10.3163003  20.0749417  11.5527349
  12.3380000  18.8300000  14.0270000  12.6119244  17.8657755  13.5948982
  12.2449325  18.7308606  15.1089530  13.1489011  19.5312678  13.8394233
  11.9600000  21.2440000  12.0510000  12.9952815  21.1507141  12.3754564
  11.9496531  21.6629568  11.0487055  11.4296285  21.9284299  12.7122803
  10.4430000  16.5350000  15.0620000  10.9201159  16.0655514  14.2979825
  10.7120000  16.0650000  16.4110000  10.3345174  16.8002696  17.1120148
  12.2130000  16.0140000  16.5260000  12.8800000  15.4090000  15.6940000
  10.0440000  14.7210000  16.6720000   9.0102796  14.8164644  16.3482109
  10.5225762  13.9597427  16.0545338  10.0100000  14.2420000  18.1300000
  11.0373259  14.1464671  18.4704117   9.3420000  15.2060000  19.0530000
   9.7481050  16.1914072  18.9489583   8.2714181  15.2224361  18.8485427
   9.5083801  14.8850847  20.0805849   9.3640000  12.8710000  18.2240000
   9.8740413  12.1964747  17.5496059   9.4093526  12.4891738  19.2430256
   8.3191513  12.9427021  17.9213196  12.7670000  16.7110000  17.5330000
  12.1605551  17.2257934  18.1660755  14.2020000  16.8190000  17.7040000
  14.5131813  17.8480331  17.5344739  14.7156308  16.1863020  16.9859330
  14.6320000  16.4190000  19.0950000  13.8620000  16.4710000  20.0580000
  15.8940000  15.9990000  19.1740000  16.4340247  15.9702915  18.3118149
  16.5480000  15.6010000  20.4000000  15.9037755  15.8760003  21.2288299
  17.8580000  16.3590000  20.5490000  18.5920000  16.5750000  19.5860000
  16.7460000  14.0990000  20.4820000  15.7525425  13.6516101  20.4323578
  17.5360000  13.5350000  19.2940000  18.5564790  13.9147449  19.2936074
  17.5571279  12.4523128  19.3715868  17.0468182  13.7879751  18.3550372
  17.3480000  13.6510000  21.8090000  16.7626481  14.0567295  22.6352834
  17.3185014  12.5620535  21.8632441  18.3837562  13.9769547  21.8926783
  18.1240000  16.7510000  21.8020000  17.4350521  16.5500803  22.5204353
  19.2950000  17.5260000  22.1840000  19.9892700  17.5739037  21.3496135
  19.9670000  16.8590000  23.3790000  19.3060000  16.5200000  24.3450000
  18.9280000  18.9600000  22.5890000  19.8486374  19.4997700  22.8152080
  18.3384697  18.9353795  23.5009613  18.1600000  19.7240000  21.5570000
  16.7980000  19.4670000  21.3540000  16.2955811  18.7281088  21.9608462
  18.7670000  20.6840000  20.7510000  19.8197541  20.9023931  20.8587708
  16.0930000  20.1050000  20.3810000  15.0705030  19.8222372  20.2188461
  17.9990000  21.3620000  19.7500000  18.4606365  22.0835092  19.0912866
  16.6690000  21.0320000  19.6180000  16.0889344  21.5086544  18.8398051
  21.2630000  16.6800000  23.3090000  21.7457801  16.9979804  22.4743906
  22.0800000  16.1790000  24.4280000  21.4511235  15.8173827  25.2431399
  22.9240000  17.3280000  24.9140000  23.6170000  17.9930000  24.1310000
  22.9970000  15.0370000  23.9570000  23.6405310  15.4081077  23.1584627
  23.6256543  14.6985205  24.7820205  22.1760000  13.8520000  23.4210000
  21.3408478  14.1990844  22.8149676  21.7615915  13.3227548  24.2746100
  22.9580000  12.8770000  22.5480000  23.4350000  13.2230000  21.4690000
  23.0700000  11.6600000  22.9860000  22.7265574  11.4123636  23.8952487
  23.6776534  11.0378651  22.4514247  22.8470000  17.5870000  26.2090000
  22.2808511  16.9991962  26.8148487  23.6220000  18.6510000  26.8210000
  24.2424141  19.1198132  26.0676174  24.5410000  18.1230000  27.8970000
  24.1770000  17.2210000  28.6410000  22.7130000  19.7170000  27.4110000
  21.9674919  19.2639180  28.0682766  23.3291771  20.3690689  28.0322933
  22.0360000  20.5920000  26.3560000  22.7137288  20.6842065  25.5065557
  20.7340000  19.9310000  25.8270000  20.2680459  20.5899865  25.0969603
  20.9236775  18.9813049  25.3452451  20.0405320  19.7798752  26.6554859
  21.7660000  21.9930000  26.8020000  21.1344829  21.9734785  27.6924988
  21.2582876  22.5463126  26.0134235  22.7016262  22.4953966  27.0412090
  25.7320000  18.6970000  27.9150000  25.9328428  19.4264159  27.2382198
  26.7450000  18.4020000  28.9640000  26.2956520  17.8221775  29.7702479
  27.1670000  19.7660000  29.5060000  27.6490000  20.6090000  28.7680000
  27.9350000  17.5850000  28.3920000  28.3557379  18.1059887  27.5323546
  27.4720000  16.2680000  27.9920000  28.2275808  15.7802394  27.6603524
  29.0380000  17.3490000  29.4140000  29.4907942  18.2964864  29.7103310
  29.8157759  16.7217901  28.9792111  28.6296144  16.8549522  30.2963013
  26.9210000  20.0250000  30.7940000  26.5386302  19.2987235  31.3800696
  27.3460000  21.3060000  31.4060000  26.8996498  21.3709990  32.3979234
  26.8070000  22.5210000  30.6380000  27.4870000  23.5290000  30.4220000
  28.8730000  21.3210000  31.5990000  29.3675018  21.1094078  30.6507907
  29.1965955  22.3030858  31.9461592  29.2830000  20.2910000  32.6400000
  29.1251367  20.7281348  33.6290768  28.6211018  19.4242405  32.5810692
  30.7120000  19.7630000  32.5500000  31.5910000  20.4940000  32.0530000
  30.9690000  18.6060000  33.0090000  25.5640000  22.3940000  30.1800000
  25.0491377  21.5453394  30.3689684  24.8820000  23.4990000  29.5690000
  23.8160050  23.2973852  29.6534727  25.1031503  24.4193677  30.1106003
  25.1950000  23.7240000  28.0900000  24.7110000  24.6990000  27.5480000
  26.0150000  22.8670000  27.5020000  26.4396616  22.1302431  28.0598778
  26.4120000  23.0050000  26.0720000  25.8925441  23.8614918  25.6407003
  25.9250000  21.7980000  25.2900000  25.8990000  20.6820000  25.8020000
  27.8990000  23.2310000  25.9050000  28.1444782  23.2614662  24.8445756
  28.4227967  22.3784781  26.3424814  28.4390000  24.5380000  26.5930000
  28.0673977  24.6197801  27.6152295  29.5281327  24.4836513  26.6258315
  28.0320000  25.7640000  25.7740000  28.3868490  25.6570067  24.7463173
  26.9427300  25.8342969  25.7650882  28.5960000  27.0080000  26.3640000
  29.6841368  26.9797189  26.2507453  28.3708434  27.0125576  27.4354673
  28.0560000  28.2160000  25.7400000  27.0583810  28.2819517  25.8867785
  28.5036760  29.0504199  26.0921057  28.2041560  28.1920780  24.7267442
  25.6280000  22.0250000  24.0100000  25.6720342  22.9729402  23.6513687
  25.0730000  20.9660000  23.1600000  24.3574492  20.3907732  23.7485588
  26.1570000  20.0280000  22.6930000  27.1000000  20.4640000  22.0040000
  24.2910000  21.5820000  21.9540000  24.9718730  22.2216376  21.3907543
  23.1380000  22.4550000  22.4270000  23.5063048  23.1751694  23.1568419
  22.4060064  21.8273065  22.9382574  23.8100000  20.5080000  21.0330000
  23.0062335  20.8522762  20.3892775  23.4534617  19.6534875  21.6097567
  24.6275018  20.1887633  20.3827388  22.4270000  23.2510000  21.3810000
  23.1552106  23.8585833  20.8411704  21.7106545  23.9222692  21.8566575
  21.8822949  22.6193641  20.6799853  26.0370000  18.7310000  23.0300000
  25.2494930  18.4609294  23.6080826  26.9090000  17.6770000  22.5430000
  27.8248847  18.1084588  22.1399401  26.2850000  16.8660000  21.4370000
  26.9490000  16.0930000  20.7810000  27.3230000  16.7500000  23.6440000
  28.0652328  16.0452981  23.2664834  26.1960000  16.0550000  24.1290000
  25.8186695  16.5828543  24.8362492  27.8820000  17.4910000  24.8550000
  28.4823772  16.7979436  25.4441243  28.5308708  18.3012881  24.5199913
  27.0801081  17.9047705  25.4682016  24.9790000  17.0470000  21.2060000
  24.4368447  17.6398744  21.8174115  24.3250000  16.4120000  20.0640000
  24.9541912  16.4820090  19.1809294  24.1413889  15.3628334  20.2878800
  22.9920000  17.0970000  19.8150000  22.2600000  17.4340000  20.7410000
  22.6490000  17.2510000  18.5290000  23.3366743  17.0542629  17.8090061
  21.3440000  17.7830000  18.1200000  20.6054256  17.6294933  18.9028452
  20.9250000  17.0430000  16.8740000  21.6360000  17.0990000  15.8620000
  21.4580000  19.2760000  17.8470000  21.6778477  19.7840587  18.7850861
  22.2950540  19.4506567  17.1688513  20.2200000  19.9130000  17.2520000
  18.9190000  19.4610000  17.3090000  18.5740682  18.5722644  17.8235141
  20.1940000  21.1230000  16.4620000  18.1050000  20.3190000  16.6210000
  17.1419872  20.0979951  16.3595129  18.8440000  21.3440000  16.0870000
  21.1560000  22.0170000  16.0340000  22.1873398  21.7966367  16.2403141
  18.4750000  22.4300000  15.2950000  17.4476229  22.5687322  14.9877642
  20.7910000  23.0620000  15.2380000  21.5519390  23.7331204  14.8675316
  19.4750000  23.2830000  14.8950000  19.2228015  24.1252188  14.2657934
  19.8140000  16.3050000  16.9500000  19.2832050  16.3029780  17.8179184
  19.2930000  15.5440000  15.8140000  19.8360565  15.8243910  14.9238492
  17.8340000  15.9000000  15.6030000  17.0010000  15.7230000  16.5170000
  19.4720000  14.0540000  16.0190000  18.9812987  13.5191383  15.2054907
  18.9816886  13.7700533  16.9470964  20.9440000  13.6350000  16.0690000
  21.4775839  14.2680130  16.7758530  21.3894450  13.7926052  15.0907526
  21.1590000  12.1920000  16.4790000  22.2134543  11.9287852  16.3885518
  20.6080553  11.5624310  15.7764729  20.6590000  11.8930000  17.8160000
  19.7916830  11.3538161  17.8777026  21.2630000  12.1890000  18.9440000
  22.4200000  12.8520000  18.9460000  22.8492510  13.0822030  18.0695692
  22.8843696  13.0414496  19.8290822  20.6950000  11.8290000  20.0880000
  21.1714962  12.0056449  20.9469948  19.8187882  11.2944426  20.0336149
  17.4970000  16.3680000  14.4110000  18.2215520  16.4468392  13.7061355
  16.1290000  16.7040000  14.0330000  15.4710239  16.6669795  14.9020801
  15.6160000  15.6860000  13.0190000  16.2700000  15.4040000  12.0110000
  16.0440000  18.1100000  13.4310000  15.1521082  18.1649789  12.8046291
  16.9077185  18.2767880  12.7843678  15.9390000  19.2400000  14.4500000
  15.5780000  18.9980000  15.6140000  16.1900000  20.3980000  14.0450000
  14.4330000  15.1560000  13.3190000  13.9583902  15.4338190  14.1733211
  13.7820000  14.1290000  12.4910000  14.4681923  13.7629265  11.7268149
  12.5540000  14.7410000  11.8190000  11.6950000  15.3630000  12.4580000
  13.3540000  12.9360000  13.3800000  12.7452511  13.3016966  14.2065956
  12.7079907  12.2920538  12.7831675  14.4770000  12.0900000  13.9440000
  15.2930000  12.5440000  14.9630000  15.1439575  13.5387819  15.3625913
  14.6770000  10.8040000  13.4820000  14.0402946  10.4058119  12.7017909
  16.2730000  11.7430000  15.5100000  16.8932593  12.1063893  16.3162993
  15.6580000   9.9860000  14.0290000  15.7985644   8.9774722  13.6859104
  16.4510000  10.4750000  15.0460000  17.4080000   9.6180000  15.5560000
  17.7925864   9.9639397  16.3933477  12.4730000  14.4980000  10.5150000
  13.2018732  13.9784893  10.0444333  11.3980000  15.0330000   9.6610000
  10.4245281  14.7729081  10.0783044  11.5260000  14.4000000   8.2920000
  12.4920000  13.6820000   7.9670000  11.5030000  16.5750000   9.5460000
  10.6842724  16.9456978   8.9288406  11.3635533  17.0206161  10.5296262
  12.8130000  17.0570000   8.9760000  12.9570000  17.2180000   7.6120000
  12.1304559  16.9930287   6.9561705  13.8860000  17.3630000   9.7810000
  13.7979828  17.2652940  10.8536797  14.1370000  17.6630000   7.0640000
  14.2120592  17.7868931   5.9948016  15.0870000  17.7840000   9.2330000
  15.9130513  18.0223385   9.8883660  15.2040000  17.9580000   7.8710000
  16.1224411  18.3283595   7.4409829  10.5180000  14.6640000   7.4660000
   9.7522374  15.2495809   7.7609775  10.4930000  14.1830000   6.0690000
  11.1083699  13.2889466   5.9792092  11.0380000  15.2330000   5.1260000
  10.5250000  16.3580000   5.0720000   9.0590000  13.8030000   5.6510000
   8.6494645  13.1222291   6.3818487   8.4402980  14.6997001   5.6607145
   9.0500000  13.2030000   4.3000000   9.5090000  12.0570000   4.2030000
   8.6610000  13.8450000   3.3090000  12.1060000  14.9210000   4.4060000
  12.5093923  13.9826783   4.4779558  12.7240000  15.8960000   3.5260000
  12.7308715  16.8528555   4.0476898  11.9700000  16.1020000   2.2270000
  11.8990000  17.2300000   1.7310000  14.1800000  15.4840000   3.2350000
  14.1669271  14.5347178   2.6972815  14.6700633  15.3129906   4.1883817
  15.0090000  16.4750000   2.4630000  14.5319325  16.6311273   1.4990694
  15.1250000  17.8280000   3.1590000  15.7590629  18.4887645   2.5798688
  14.1511309  18.3069072   3.2542052  15.5803425  17.6902777   4.1391531
  16.4060000  15.8790000   2.1760000  16.9763079  15.8158590   3.1013593
  16.9361378  16.5311693   1.4803374  16.3277662  14.8850616   1.7436901
  11.4350000  15.0470000   1.6260000  11.3815345  14.1735912   2.1392664
  10.8620000  15.1710000   0.2980000  11.6083712  15.6020912  -0.3709753
   9.7010000  16.1290000   0.2520000   9.5480000  16.8830000  -0.6950000
  10.4570000  13.7990000  -0.2330000   9.8503301  13.3094024   0.5321887
  11.3593620  13.2040103  -0.3767368   9.6810000  13.8400000  -1.5220000
  10.2446500  14.4081518  -2.2638758   8.7349470  14.3574669  -1.3547901
   9.3340000  12.5070000  -2.0950000  10.2631587  12.0348850  -2.4170141
   8.7005409  12.6681383  -2.9710042   8.6470000  11.6750000  -1.1410000
   8.2724748  12.1075672  -0.3081313   8.5980000  10.3880000  -1.2440000
   9.0600000   9.7820000  -2.3280000   9.4566955  10.2987717  -3.0849005
   9.0102225   8.7545420  -2.3506962   8.0770000   9.6830000  -0.2690000
   7.9651465   8.6685608  -0.3810735   7.8674491  10.1175819   0.6101609
   8.7950000  16.0600000   1.2440000   8.8874166  15.3643659   1.9880886
   7.6210000  16.9360000   1.2580000   7.0055077  16.7714268   0.3721585
   8.0650000  18.4150000   1.2660000   7.4610000  19.2520000   0.6300000
   6.7820000  16.6750000   2.5200000   6.0748555  17.5016795   2.5888861
   7.4553797  16.7767760   3.3730308   5.9680000  15.4330000   2.7300000
   5.2061137  15.4129342   1.9462450   6.5537887  14.5352985   2.5768531
   5.2690000  15.4140000   4.1090000   6.0200000  15.4360000   5.1040000
   4.0000000  15.3920000   4.1620000   9.0840000  18.6990000   2.0220000
   9.5235959  17.9505742   2.5414150   9.6370000  20.0510000   2.0940000
   8.8455527  20.7524774   2.3592095  10.1970000  20.4540000   0.7120000
   9.8830000  21.5190000   0.1700000  10.6990000  20.0250000   3.1830000
  11.3892597  19.2113951   2.9840383  10.2035767  19.7970359   4.1244749
  11.4930000  21.2360000   3.3690000  11.0680000  22.4970000   3.0480000
  10.1149507  22.6482771   2.5634756  12.6970000  21.0990000   4.0540000
  13.0249685  20.1226747   4.3815458  11.8740000  23.5880000   3.2950000
  11.5453062  24.5771363   3.0096085  13.4780000  22.1920000   4.3200000
  14.4141753  22.0712860   4.8471920  13.0800000  23.4200000   3.9280000
  13.6987681  24.2789281   4.1386686  11.0360000  19.6010000   0.1420000
  11.2643049  18.7372406   0.6234542  11.6290000  19.8730000  -1.1530000
  12.2797330  20.7468379  -1.0939001  10.6090000  20.1470000  -2.2090000
  10.8160000  21.0510000  -3.0530000  12.4470000  18.6700000  -1.6060000
  11.8445313  17.7652488  -1.5268747  12.6765268  18.8260510  -2.6626166
  13.7070000  18.4640000  -0.8960000  13.5522119  18.2981857   0.1663303
  14.2110344  19.3468567  -1.1106624  14.5560000  17.3410000  -1.5150000
  14.1810000  16.8580000  -2.5610000  15.6060000  17.0020000  -0.9650000
   9.5580000  19.3590000  -2.2270000   9.4834763  18.6022879  -1.5527514
   8.4980000  19.5160000  -3.2320000   8.9529003  19.5723602  -4.2223849
   7.7540000  20.8070000  -3.0460000   7.3310000  21.4320000  -4.0210000
   7.5320000  18.3180000  -3.2150000   7.1823338  18.1521734  -2.1944783
   6.6722753  18.5407687  -3.8489052   8.2090000  17.0660000  -3.7400000
   8.5332203  17.2704801  -4.7636474   9.1102140  16.8600180  -3.1634057
   7.3550000  15.8170000  -3.7530000   6.2810000  15.7770000  -3.1250000
   7.8220000  14.8540000  -4.3720000   7.5690000  21.2270000  -1.8180000
   7.9024790  20.6672407  -1.0407985   6.8150000  22.4570000  -1.5600000
   5.9015861  22.4494221  -2.1568786   7.6140000  23.6920000  -1.9530000
   7.0260000  24.7130000  -2.3810000   6.4510000  22.5530000  -0.1400000
   5.8247626  21.7018886   0.1333916   7.3458377  22.5423106   0.4846306
   5.8948476  23.4745015   0.0384830   8.9320000  23.6500000  -1.8480000
   9.3653704  22.7991937  -1.5018365   9.7510000  24.8610000  -2.0750000
   9.0855495  25.7088224  -2.1960323  10.5840000  24.8520000  -3.3580000
  11.2950000  25.8290000  -3.6150000  10.6400000  25.2120000  -0.8500000
  11.0965568  26.1820066  -1.0347406   9.8120000  25.3670000   0.4300000
   9.4318776  24.3927857   0.7380334   8.9735491  26.0396038   0.2486910
  10.4324720  25.7802493   1.2244831  11.7590000  24.1880000  -0.7060000
  12.4701597  24.3037299  -1.5223113  11.3701209  23.1763001  -0.7354540
  12.2842396  24.3375568   0.2363045  10.4920000  23.7880000  -4.1670000
   9.8847666  23.0172841  -3.9099355  11.1840000  23.6900000  -5.4520000
  10.9583138  22.7001440  -5.8520107  12.6790000  23.7610000  -5.3700000
  13.3370000  24.4360000  -6.1620000  10.6750000  24.7190000  -6.4770000
  10.8101648  25.7368732  -6.1173144  11.2308874  24.6019884  -7.4087739
   9.2380000  24.5310000  -6.8310000   8.6990000  23.4290000  -6.6470000
   8.5690000  25.4690000  -7.3320000  13.2380000  23.0320000  -4.4300000
  12.6590028  22.4702861  -3.8141481  14.6640000  22.9500000  -4.3710000
  15.1155495  23.1955727  -5.3304056  15.0960000  21.5530000  -3.9090000
  14.6210000  21.1330000  -2.8210000  15.0230000  23.9760000  -3.3460000
  14.5450628  24.9208845  -3.6191639  14.5816832  23.6664648  -2.3962810
  16.4800000  24.2770000  -3.1140000  17.0004836  23.3629695  -2.8304057
  17.1530000  24.8660000  -4.3530000  18.1746599  25.1631807  -4.1160661
  16.5916586  25.7377863  -4.6923255  17.1793342  24.1609207  -5.1685775
  16.5480000  25.2370000  -1.9830000  16.0083809  24.8547570  -1.1165155
  17.5883925  25.3879644  -1.6939437  16.1131398  26.1915459  -2.2785847
  15.9960000  20.9000000  -4.6640000  16.4300000  19.5570000  -4.2940000
  15.5836513  18.9212094  -4.0256021  17.4490000  19.5720000  -3.2160000
  18.6490000  19.6980000  -3.4020000  17.0830000  19.0450000  -5.5700000
  17.7684919  18.2161721  -5.3812172  16.3158859  18.7262509  -6.2780760
  17.8170000  20.2480000  -6.1100000  18.7448587  20.4786185  -5.5926823
  18.0215365  20.1266753  -7.1740262  16.7470000  21.3440000  -5.8810000
  17.2583810  22.2823456  -5.7282241  16.0714697  21.3991898  -6.7358971
  16.9900000  19.2070000  -2.0590000  16.0136584  18.9647482  -1.9779742
  17.7310000  19.3930000  -0.8580000  18.3236085  20.3015128  -0.9480001
  18.7560000  18.3410000  -0.5290000  19.4100000  18.4400000   0.4880000
  16.7150000  19.5500000   0.2850000  16.1412229  18.6589420   0.4578432
  17.2732023  19.7181398   1.2071231  15.7700000  20.7480000   0.0820000
  15.3232562  20.8064622  -0.8415173  14.7640000  20.9250000   1.1890000
  14.0054871  20.1481773   1.1700189  15.2602992  20.8801716   2.1583013
  14.2431874  21.8795960   1.0925284  16.5910000  21.9500000   0.0530000
  17.1817603  22.0017099  -0.8587201  17.2412341  22.0083357   0.9261227
  15.9510989  22.8306944   0.0355406  18.8880000  17.3180000  -1.3330000
  18.2803653  17.2857373  -2.1392094  20.0290000  16.3680000  -1.2270000
  20.4263769  16.3453152  -0.2113621  21.1840000  16.7380000  -2.1460000
  22.1710000  16.0020000  -2.2130000  19.5870000  14.9720000  -1.6450000
  19.2582512  14.9976361  -2.6858511  20.4271010  14.2796735  -1.5626378
  18.4820000  14.4740000  -0.7710000  18.8284124  14.4580979   0.2633841
  17.6119405  15.1279198  -0.8322752  18.0400000  13.0060000  -1.1740000
  18.9255167  12.3658761  -1.1930823  17.3482445  12.6292497  -0.4179394
  17.3970000  13.0260000  -2.4690000  17.3195979  13.9137569  -2.9395626
  17.0360000  11.9520000  -3.1280000  17.1930000  10.7770000  -2.5580000
  16.8775669   9.9011261  -2.9998341  17.6660284  10.7031344  -1.6796224
  16.4960000  12.0770000  -4.3240000  16.2487524  12.9678910  -4.7243116
  16.1453631  11.2296851  -4.7513845  21.0380000  17.8100000  -2.9270000
  20.1428891  18.2769829  -2.9667041  22.0760000  18.3080000  -3.8230000
  22.2236962  19.3746364  -3.6760353  23.0190570  17.7835320  -3.6851733
  21.6470000  18.1040000  -5.2490000  22.2250000  18.6250000  -6.2120000
  20.6340000  17.4130000  -5.4040000  23.4450000  -5.9600000  12.6640000
  23.8270406  -6.8182704  12.2899631  24.1421644  -5.2276075  12.5200297
  23.3385710  -6.0419097  13.6652179  22.1790000  -5.5980000  11.9900000
  22.3675345  -5.5743598  10.9146653  21.8180000  -4.1610000  12.3440000
  21.8280000  -3.3850000  11.4410000  21.1090000  -6.6280000  12.2330000
  21.4640236  -7.5531942  11.7738181  21.1622636  -6.7947985  13.3013605
  19.7570000  -6.3750000  11.6720000  19.7736509  -5.5681166  10.9366222
  19.3904245  -7.2811923  11.1860498  18.8500000  -6.0420000  12.7960000
  19.2113575  -5.0954176  13.0837271  17.8202943  -5.9559194  12.4456985
  18.9050000  -7.0230000  13.9520000  18.0306907  -7.6786263  13.8596474
  19.7500008  -7.7073488  13.8893734  18.8660000  -6.3530000  15.2850000
  17.9044968  -6.1487214  15.5382633  19.2328094  -6.9562348  16.0135456
  19.3671771  -5.4738089  15.3102546  21.5330000  -3.8020000  13.5960000
  21.6955556  -4.4345935  14.3613072  21.4100000  -2.3770000  13.9740000
  21.2537267  -1.7484657  13.0966817  22.6900000  -1.9380000  14.6480000
  23.0380000  -2.4230000  15.7240000  20.2280000  -2.1400000  14.9440000
  20.3691898  -2.7403708  15.8455432  18.9190000  -2.5700000  14.2670000
  18.7789706  -2.0822127  13.3010520  18.9910332  -3.6135985  14.1674731
  20.2110000  -0.6630000  15.3500000  20.1135417  -0.0186240  14.4761814
  21.1098683  -0.3899068  15.9066890  19.3791714  -0.4715294  16.0245957
  17.6660000  -2.4440000  15.1310000  16.8136269  -2.9083672  14.6464205
  17.4270212  -1.3939570  15.2979953  17.8225457  -2.9372240  16.0897943
  23.4060000  -1.0010000  14.0910000  23.1627010  -0.5185867  13.2444949
  24.5670000  -0.6410000  14.8930000  24.8280006  -1.4014712  15.6199549
  24.3370000   0.5720000  15.7970000  23.4330000   1.4360000  15.6050000
  25.8830000  -0.5840000  14.1270000  26.3129842   0.4131880  14.2341677
  25.7178397  -0.7525265  13.0612269  26.8890000  -1.5990000  14.6750000
  26.8908614  -1.6037905  15.7684999  27.8808804  -1.2598551  14.3674562
  26.6840000  -3.0040000  14.1260000  25.5540000  -3.3290000  13.6790000
  27.6540000  -3.7960000  14.1470000  25.1640000   0.5690000  16.8180000
  25.8632541  -0.1548235  16.8731907  25.1200000   1.5660000  17.8690000
  24.0905748   1.6907035  18.2011417  25.6960000   2.8410000  17.3700000
  26.8370000   2.8840000  16.9250000  25.9890000   1.0830000  19.0330000
  26.9774424   0.8032138  18.6631424  26.1249226   1.9035793  19.7406251
  25.4050000  -0.0760000  19.7560000  26.0775457  -0.3719103  20.5606843
  25.3022775  -0.9241563  19.0780877  24.0660000   0.2710000  20.3660000
  23.9400000   1.2870000  21.0770000  23.0670000  -0.5680000  20.1140000
  23.1281868  -1.3078965  19.4456861  22.1756791  -0.4503446  20.5993149
  24.9300000   3.9190000  17.4310000  25.4570000   5.1750000  16.9090000
  25.8321998   5.0359923  15.8941619  26.5510000   5.8100000  17.7790000
  26.5540000   5.6510000  18.9970000  24.2440000   6.0700000  16.8820000
  23.7447541   5.9277100  15.9211176  24.4840435   7.1206589  17.0183623
  23.4340000   5.5570000  17.8650000  22.3893928   5.8052792  17.6769566
  23.7165904   6.0066573  18.8170765  23.5870000   4.0690000  17.9720000
  23.5177079   3.7403780  19.0105657  22.8632614   3.5583330  17.3353064
  27.4270000   6.5970000  17.1560000  27.3903142   6.6386390  16.1489382
  28.4720000   7.2860000  17.8680000  29.0691372   6.5557073  18.4212198
  27.9340000   8.2300000  18.9170000  28.6370000   8.5240000  19.8750000
  29.3780000   8.0410000  16.8860000  30.0526276   8.6931701  17.4444890
  28.7544072   8.6615260  16.2503672  30.2150000   7.1040000  16.0280000
  31.0292806   6.6922047  16.6265220  29.5988147   6.2740961  15.6802172
  30.7730000   7.7870000  14.8130000  29.9355752   8.1998431  14.2458685
  31.2539129   7.0265149  14.1927037  31.7440000   8.8400000  15.0950000
  32.1241070   8.9043085  16.0257536  32.1930000   9.6980000  14.1630000
  31.8010000   9.6020000  12.8980000  30.9631802   9.0771365  12.6752689
  32.2040485  10.2003795  12.1988813  33.0940000  10.6040000  14.4920000
  33.3277092  10.7548634  15.4596493  33.5515115  11.1479892  13.7778790
  26.7170000   8.7570000  18.7070000  26.1999709   8.4321169  17.9078694
  26.0630000   9.7080000  19.5700000  26.8230473  10.2922250  20.0941002
  25.2180000   9.1000000  20.6530000  24.5750000   9.7990000  21.3990000
  25.2100000  10.6900000  18.7370000  25.8972160  11.3948701  18.2691243
  24.5722957  11.2826784  19.3912428  24.3750000  10.0800000  17.6500000
  24.6510000  10.1290000  16.3630000  25.5000140  10.6396495  15.9402092
  23.1210000   9.3880000  17.7720000  23.6810000   9.5180000  15.6340000
  23.6281972   9.5093915  14.6214945  22.7070000   9.0700000  16.4930000
  22.3090000   9.0350000  18.8450000  22.6110427   9.2899027  19.8457310
  21.5080000   8.4250000  16.2320000  21.1972202   8.2030734  15.2219715
  21.1350000   8.3870000  18.6250000  20.4959881   8.1128137  19.4535168
  20.7330000   8.0630000  17.3030000  19.7892396   7.5604545  17.1366683
  25.1720000   7.7980000  20.7340000  25.7572403   7.2059733  20.1584507
  24.4300000   7.1910000  21.8560000  23.3686405   7.4083265  21.7290231
  24.8740000   7.7170000  23.2210000  26.0650000   7.8060000  23.5170000
  24.6060000   5.6530000  21.8510000  24.0463701   5.2142613  22.6787736
  25.6606142   5.3944607  21.9594369  24.2317045   5.2336847  20.9187511
  23.9060000   7.9600000  24.0890000  22.9458258   7.7911505  23.8113263
  24.1860000   8.3960000  25.4430000  24.7724802   9.3141779  25.4157679
  24.9410000   7.3340000  26.2260000  24.7020000   6.1320000  26.0550000
  22.8700000   8.6600000  26.1620000  22.2389134   7.7703762  26.1138136
  22.3553066   9.4868230  25.6705015  23.1040000   8.9950000  27.5280000
  22.3107739   9.3972154  27.9032338  25.8350000   7.7840000  27.1020000
  25.9429470   8.7805441  27.2097007  26.5180000   6.8730000  28.0230000
  26.5058509   5.8626688  27.6090989  25.8160000   6.7710000  29.3720000
  26.3060000   6.1740000  30.3010000  27.9830000   7.2830000  28.2200000
  28.0190563   8.2360967  28.7512594  28.4734676   6.5303331  28.8402824
  28.7560000   7.4170000  26.9090000  28.3380612   8.2300985  26.3135342
  28.6526740   6.4871229  26.3469116  30.2320000   7.6930000  27.1360000
  30.6266797   6.9148323  27.7920616  30.3512954   8.6595225  27.6292776
  31.0240000   7.6830000  25.8180000  30.6532931   6.8495595  25.2116604
  30.7832564   8.6010036  25.2703270  32.5180000   7.5500000  25.9760000
  32.8694622   8.3260897  26.5224509  32.9728266   7.5868392  25.0707482
  32.7553596   6.6896814  26.4523732  24.6440000   7.3520000  29.5090000
  24.2156623   7.8099713  28.7151863  23.8680000   7.2590000  30.7680000
  24.5216281   7.1113334  31.6289168  22.9350000   6.0510000  30.6240000
  22.0010000   6.0230000  29.7970000  23.1180000   8.6040000  30.9630000
  23.8495830   9.4128535  31.0059174  22.4738582   8.7815208  30.1043175
  22.2530000   8.6560000  32.2270000  21.8090000   7.5990000  32.7420000
  21.9620000   9.7680000  32.7320000  23.1160000   5.0260000  31.4560000
  23.8319013   5.0827043  32.1629938  22.2560000   3.8390000  31.3490000
  22.3765728   3.4225974  30.3475365  20.7610000   4.1240000  31.4930000
  19.9210000   3.4370000  30.8650000  22.6830000   2.7710000  32.3450000
  23.0136966   3.2287844  33.2786616  21.8312192   2.1222831  32.5574515
  23.7160000   1.9570000  31.7900000  24.4485772   2.5199806  31.5245400
  20.4200000   5.1050000  32.3220000  21.1163337   5.7584254  32.6798141
  19.0300000   5.4210000  32.5260000  18.4829927   4.5067855  32.7618400
  18.4110000   5.9890000  31.2410000  17.2170000   5.8980000  31.0790000
  18.8680000   6.3730000  33.6960000  19.1633997   5.8781955  34.6222134
  19.4687820   7.2723282  33.5528151  17.8196870   6.6711557  33.7743070
  19.2120000   6.6310000  30.3850000  20.2036091   6.6922874  30.5875629
  18.7140000   7.1360000  29.1030000  17.8145293   7.6793949  29.1898758
  18.3040000   6.0150000  28.1990000  17.4690000   6.3100000  27.3860000
  19.7240000   7.9850000  28.3970000  20.5449753   8.2353267  29.0668372
  19.2422321   8.9078728  28.0941595  20.1289037   7.4805204  27.5180437
  18.8990000   4.8130000  28.2750000  19.6041138   4.6591571  28.9853744
  18.4770000   3.6890000  27.4510000  18.0060968   4.0494540  26.5367367
  19.3606865   3.1208418  27.1621645  17.5120000   2.7300000  28.1140000
  17.1340000   1.7340000  27.5080000  17.1130000   2.9940000  29.3490000
  17.3900445   3.8576640  29.7966486  16.2090000   2.0950000  30.0810000
  15.9685051   1.2218063  29.4743428  14.9050000   2.8030000  30.4110000
  14.9000000   3.9560000  30.6550000  16.8580000   1.5920000  31.3840000
  17.7922462   1.0772453  31.1556576  17.0678753   2.4460907  32.0306021
  16.1876798   0.9130220  31.9110787  13.8080000   2.0850000  30.4380000
  13.8521994   1.1074659  30.2080648  12.5450000   2.6460000  30.9230000
  12.3370296   3.5663067  30.3695839  12.6800000   2.9930000  32.4050000
  13.1130000   2.1720000  33.2200000  11.4430000   1.7090000  30.7070000
  11.6397577   0.7606876  31.2073951  10.5307820   2.1498568  31.1015115
  11.3025239   1.5438409  29.6399229  12.2820000   4.1950000  32.7720000
  12.0916358   4.8843878  32.0367165  12.5160000   4.6820000  34.1070000
  12.9823383   3.9232997  34.7328837  11.2290000   5.0930000  34.8020000
  11.2820000   5.6470000  35.9190000  13.5080000   5.8600000  34.0500000
  13.0424836   6.7075183  33.5426769  13.7597314   6.1611381  35.0677209
  14.7230000   5.5090000  33.3600000  14.6046878   5.5877024  32.4038890
  10.0900000   4.8870000  34.1310000  10.1511204   4.5877696  33.1667585
   8.7700000   5.1430000  34.6650000   8.8266752   5.1441543  35.7515849
   7.8210000   4.0500000  34.1990000   8.0590000   3.3850000  33.2030000
   8.1460000   6.4970000  34.2220000   7.2643917   6.7091325  34.8257835
   7.7460000   6.3900000  32.8460000   7.9759721   7.2306264  32.4231792
   9.1090000   7.6650000  34.3410000   9.4536425   7.7618587  35.3716989
   9.9716152   7.5262345  33.6848206   8.6037687   8.5878220  34.0496096
   6.6790000   3.8730000  34.8530000   5.6930000   2.9230000  34.3720000
   6.1120935   1.9176394  34.4196947   5.2510000   3.2020000  32.9220000
   5.1250000   2.2290000  32.1690000   4.5660000   3.0460000  35.4160000
   3.8508384   3.8078648  35.0989100   4.0479860   2.0959650  35.5529132
   5.2380000   3.5030000  36.6960000   4.5484175   4.0393750  37.3490058
   5.6660174   2.6426499  37.2127695   6.3400000   4.3920000  36.1930000
   7.1873385   4.3509859  36.8778785   5.9702550   5.4147482  36.1068994
   4.9850000   4.4500000  32.5320000   5.0175119   5.2224891  33.1766137
   4.6110000   4.6980000  31.1260000   3.7537662   4.0743671  30.8636658
   5.7330000   4.3440000  30.1510000   5.4700000   3.8190000  29.0340000
   4.2410000   6.1470000  30.8990000   4.9826478   6.7901805  31.3772802
   4.2677690   6.3509092  29.8271991   2.8740000   6.5230000  31.3740000
   2.0770000   5.6590000  31.7950000   2.4810000   7.7270000  31.3100000
   6.9630000   4.6510000  30.5120000   7.1311420   5.1195009  31.3965611
   8.0840000   4.2700000  29.6540000   7.9038490   4.6648462  28.6529499
   8.1940000   2.7620000  29.5010000   8.4810000   2.2440000  28.4490000
   9.3930000   4.8660000  30.1540000   9.5368155   4.5729301  31.1950220
  10.2101977   4.4444066  29.5701301   9.4470000   6.3690000  30.0480000
   9.3919351   6.6367621  28.9924404   8.5816005   6.8154180  30.5352333
  10.7140000   6.9580000  30.6320000  11.6820000   6.1930000  30.8630000
  10.7510000   8.1810000  30.8190000   7.9120000   2.0360000  30.5970000
   7.6227197   2.5098413  31.4478155   7.9340000   0.5820000  30.5240000
   8.8924100   0.2690450  30.1084510   6.9050000   0.0310000  29.5220000
   7.1630000  -0.9040000  28.7740000   7.7900000  -0.0670000  31.9080000
   6.9593932   0.3908793  32.4453012   7.5635568  -1.1274841  31.7753489
   9.0880000   0.0460000  32.7450000   9.8936036  -0.4495804  32.2027391
   9.3401784   1.0998985  32.8476203   8.9830000  -0.5830000  34.1310000
   8.7618825  -1.6463907  34.0151666   8.1501567  -0.1265946  34.6692148
  10.2640000  -0.4350000  34.9480000  11.0854720  -0.9380670  34.4273131
  10.1114282  -0.9453889  35.9040893  10.5990000   1.0000000  35.1860000
  11.2516955   1.0936192  35.9545211   9.7675581   1.5403854  35.3775609
  11.0644051   1.3855133  34.3674289   5.7090000   0.5900000  29.5250000
   5.4992736   1.3091157  30.2072684   4.6780000   0.1710000  28.5750000
   4.5233328  -0.9077481  28.6665086   5.1260000   0.4470000  27.1510000
   4.9470000  -0.3780000  26.2590000   3.3630000   0.8670000  28.8130000
   3.5353136   1.9425824  28.8799994   2.7620000   0.3690000  30.1290000
   2.4077532  -0.6573522  30.0145291   3.5194132   0.3712580  30.9128984
   2.3750000   0.5990000  27.6930000   1.3733238   0.9544314  27.9262133
   2.3356360  -0.4737601  27.4856697   2.6788585   1.1254858  26.7867824
   1.6580000   1.2240000  30.5890000   1.3253997   0.8641336  31.5630985
   1.9946917   2.2559863  30.6991897   0.8052448   1.1778804  29.9228345
   5.7180000   1.6240000  26.9150000   5.8070052   2.3003860  27.6690423
   6.1720000   1.9660000  25.5550000   5.3324536   1.8552660  24.8680902
   7.2200000   0.9570000  25.0900000   7.1630000   0.5220000  23.9310000
   6.6590000   3.4080000  25.4840000   7.3706324   3.5969606  26.2881954
   7.3350000   3.7380000  24.1770000   6.6577100   3.5533293  23.3412572
   7.6319681   4.7869958  24.1704078   8.2346174   3.1370784  24.0477065
   5.4930000   4.3260000  25.6230000   4.5445609   3.7933271  25.5525619
   5.4951236   5.1125801  24.8687157   5.5314713   4.8011978  26.6027009
   8.1540000   0.5560000  25.9400000   8.1801253   0.9328976  26.8820446
   9.1200000  -0.4550000  25.5210000   9.5017578  -0.1766383  24.5394173
   8.4910000  -1.8260000  25.2920000   8.9180000  -2.5600000  24.4090000
  10.3090000  -0.5260000  26.4760000  10.9117583  -1.3870778  26.1799109
   9.9417165  -0.7178426  27.4855112  11.2280000   0.6950000  26.5040000
  10.6982803   1.5103532  26.9919602  12.5030000   0.4020000  27.3200000
  13.0868200   1.3137877  27.4454790  12.2324939  -0.0032566  28.2923886
  13.1075986  -0.3388204  26.7946102  11.6420000   1.1560000  25.1370000
  10.7930254   1.5914971  24.6120319  12.4126964   1.9212128  25.2244266
  12.0380515   0.3177097  24.5613923   7.4710000  -2.1700000  26.0750000
   7.1963603  -1.5956252  26.8652386   6.7550000  -3.3970000  25.7930000
   7.4518441  -4.2389010  25.7872156   6.1050000  -3.3300000  24.4140000
   6.0920000  -4.3180000  23.6560000   5.6860000  -3.6440000  26.8630000
   5.0882537  -2.7425996  26.9701115   5.0185547  -4.4323052  26.5096798
   6.2000000  -4.0550000  28.2250000   7.0727079  -3.4510983  28.4746559
   6.5395265  -5.0914899  28.1603917   5.1740000  -3.9300000  29.3640000
   3.9550000  -3.7050000  29.1130000   5.5870000  -4.0770000  30.5400000
   5.5320000  -2.1720000  24.0940000   5.5216748  -1.4200117  24.7768627
   4.9050000  -1.9840000  22.7850000   4.1878089  -2.7892311  22.6227978
   5.9420000  -2.0660000  21.6690000   5.7150000  -2.7240000  20.6540000
   4.1440000  -0.6440000  22.7890000   4.8446129   0.1655594  22.9846877
   3.4244931  -0.6532812  23.6086703   3.4010000  -0.3540000  21.5190000
   3.6970000   0.7760000  20.7690000   4.4842358   1.4390488  21.0922957
   2.3470000  -1.1120000  21.1110000   2.0680825  -1.9806810  21.6856345
   3.0250000   1.0470000  19.6190000   3.2871696   1.9144219  19.0287565
   1.6700000  -0.8210000  19.9710000   0.8419604  -1.4478433  19.6740700
   1.9990000   0.2520000  19.2290000   1.4550875   0.4744228  18.3235995
   7.1180000  -1.5000000  21.8780000   7.2769439  -0.9936955  22.7428872
   8.1880000  -1.6150000  20.8950000   7.8312482  -1.2366520  19.9387023
   8.5500000  -3.0790000  20.6500000   8.7190000  -3.5070000  19.5200000
   9.4230000  -0.8280000  21.2840000   9.7703047  -1.1658267  22.2607261
  10.2127637  -1.0461873  20.5646863   9.2400000   0.6790000  21.3310000
  10.1948443   1.1163217  21.6242087   8.5099856   0.9517449  22.0835237
   8.7580000   1.4080000  19.7620000   6.9940000   1.5250000  19.9040000
   6.7363542   2.0885732  20.8007873   6.5565200   0.5296356  19.9646511
   6.5936438   2.0333776  19.0264842   8.6280000  -3.8770000  21.7320000
   8.5924979  -3.4791786  22.6673603   8.9190000  -5.3050000  21.5880000
   9.8654736  -5.4427761  21.0620361   7.8070000  -6.0050000  20.7760000
   8.0590000  -6.9290000  20.0060000   9.0000000  -5.9710000  22.9690000
   8.1389728  -5.6986307  23.5740996   8.9706499  -7.0531647  22.8296651
  10.2640000  -5.6530000  23.7330000  11.2210000  -5.1200000  23.1360000
  10.3900000  -5.9480000  24.9790000   6.5640000  -5.5980000  20.9740000
   6.4027487  -4.8677816  21.6636847   5.4160000  -6.2200000  20.2940000
   5.5232919  -7.2980569  20.3984061   5.3440000  -5.9080000  18.7980000
   4.7060000  -6.6360000  18.0570000   4.1330000  -5.7990000  20.9570000
   3.3097572  -6.4232771  20.6076557   3.9179647  -4.7556036  20.7118407
   4.2223682  -5.8841809  22.0439843   5.9650000  -4.8110000  18.3540000
   6.4548076  -4.2123961  19.0153628   5.8800000  -4.4190000  16.9360000
   4.8348454  -4.2375692  16.6930860   6.3080000  -5.5170000  16.0020000
   5.7820000  -5.6240000  14.8910000   6.6800000  -3.1410000  16.6570000
   7.6952004  -3.2815177  17.0305422   6.7561553  -3.0188502  15.5779421
   6.1280000  -1.8400000  17.2310000   6.1084306  -1.9110425  18.3138614
   6.9870000  -0.6680000  16.8700000   7.0442590  -0.5527171  15.7869637
   6.5800888   0.2445546  17.3028063   7.9944883  -0.8133903  17.2607119
   4.7490000  -1.5880000  16.7560000   4.4186035  -0.6020057  17.0843243
   4.7069250  -1.6402674  15.6678695   4.0651907  -2.3118250  17.1917306
   7.2890000  -6.3300000  16.4100000   7.6982611  -6.1800245  17.3216634
   7.8190000  -7.3990000  15.5490000   7.9897443  -6.9885390  14.5544842
   6.8150000  -8.5410000  15.3550000   7.0470000  -9.4330000  14.5550000
   9.1540000  -7.9520000  16.0530000   9.4004636  -8.8515582  15.4879306
   9.0430000  -8.2940000  17.4360000   9.1375611  -7.5134374  17.9930128
  10.3030000  -6.9600000  15.8740000  11.2275357  -7.4251945  16.2151132
  10.1179780  -6.0518822  16.4475098  10.4146928  -6.7064318  14.8246990
   5.6980000  -8.5030000  16.0520000   5.5511886  -7.7363765  16.6933919
   4.6440000  -9.4550000  15.8140000   5.0517631 -10.4666092  15.8059543
   3.9670000  -9.2060000  14.4750000   3.2840000 -10.0950000  13.9670000
   3.5850000  -9.3510000  16.8960000   2.9121735 -10.2055058  16.8016377
   4.0663601  -9.3918884  17.8706568   2.8000000  -8.1460000  16.7830000
   3.3578376  -7.3977166  17.0615939   4.0360000  -7.9770000  13.9380000
   4.6411624  -7.2799854  14.3548364   3.3630000  -7.6380000  12.6810000
   3.4728516  -6.5694722  12.5170854   1.8640000  -7.9260000  12.7490000
   1.2030000  -8.2700000  11.7500000   3.9650000  -8.3770000  11.5150000
   3.8599676  -9.4527023  11.6428436   3.4299899  -8.1086171  10.6042816
   5.4020000  -8.0210000  11.2690000   5.7680000  -6.8380000  11.2370000
   6.2120000  -9.0300000  10.9670000   7.1725039  -8.7977799  10.7343500
   5.8942824  -9.9707642  11.0871333   1.2930000  -7.7780000  13.9430000
   1.8773094  -7.5872578  14.7428902  -0.0860000  -8.2170000  14.1890000
  -0.5446364  -8.6183179  13.2841110  -0.9380000  -7.0640000  14.6900000
  -0.8770000  -6.7050000  15.8780000  -0.0640000  -9.3450000  15.2260000
   0.3456997  -8.9852233  16.1671924   0.6027593 -10.1289489  14.8631005
  -1.4190000  -9.9650000  15.4700000  -2.4520000  -9.3500000  15.1790000
  -1.5000000 -11.1280000  15.9520000  -1.7260000  -6.4680000  13.7970000
  -1.7406387  -6.8247088  12.8539146  -2.5160000  -5.3080000  14.1240000
  -1.8400250  -4.5386654  14.4988984  -3.5240000  -5.5720000  15.2400000
  -3.7820000  -4.7120000  16.0920000  -3.2110000  -4.7450000  12.8930000
  -3.7888033  -3.8595052  13.1677156  -2.4721503  -4.4709195  12.1398475
  -3.8934618  -5.4890325  12.4772586  -4.0940000  -6.7690000  15.2540000
  -3.7569859  -7.5063220  14.6471157  -5.0280000  -7.1260000  16.3260000
  -5.7928190  -6.3470140  16.3916838  -4.3540000  -7.2030000  17.6760000
  -4.9640000  -6.8420000  18.6900000  -5.7430000  -8.4440000  15.9990000
  -6.4042713  -8.6995410  16.8284883  -6.3403536  -8.3312366  15.0925400
  -5.0212177  -9.2502582  15.8579157  -3.1330000  -7.6870000  17.7560000
  -2.7232297  -8.0811491  16.9096669  -2.4010000  -7.7180000  19.0180000
  -3.0355059  -8.1342428  19.8030502  -2.0220000  -6.2900000  19.4430000
  -2.1520000  -5.8950000  20.5980000  -1.1250000  -8.5620000  18.8790000
  -1.4215053  -9.5906352  18.6631736  -0.5829014  -8.1937532  18.0104944
  -0.1380000  -8.5750000  20.0420000   0.1715697  -7.5517370  20.2579525
  -0.6345185  -8.9780100  20.9257595   1.1260000  -9.3990000  19.7510000
   0.8588785 -10.4476967  19.6063265   1.5525659  -9.0215452  18.8252710
   2.1740000  -9.2640000  20.8860000   2.1499024  -8.2269013  21.2352826
   1.8455092  -9.8873636  21.7236540   3.5970000  -9.6150000  20.4990000
   3.9152005  -9.0008771  19.7586909   4.2216941  -9.5097079  21.2902395
   3.6421093 -10.5715160  20.1704879  -1.5070000  -5.5260000  18.4900000
  -1.4140772  -5.9095380  17.5532163  -1.0040000  -4.2120000  18.8010000
  -0.3467965  -4.2743863  19.6668497  -2.1160000  -3.2450000  19.1930000
  -1.9040000  -2.3670000  20.0400000  -0.2280000  -3.6970000  17.6070000
  -0.8612590  -3.7586859  16.7198454   0.0404944  -2.6507897  17.7572347
   1.0460000  -4.5250000  17.3870000   0.8253848  -5.5886605  17.4462513
   1.6440000  -4.2910000  16.0300000   0.9517802  -4.6878293  15.2899473
   1.8145702  -3.2271248  15.8641798   2.5850033  -4.8327826  15.9332973
   2.0800000  -4.2320000  18.4760000   2.2829830  -3.1631272  18.5271392
   3.0030195  -4.7430868  18.2327595   1.7322160  -4.5821005  19.4449766
  -3.3070000  -3.3950000  18.6210000  -3.4580738  -4.0990762  17.9029611
  -4.3740000  -2.4430000  18.9080000  -3.9329021  -1.4666315  18.7413088
  -4.8080000  -2.4720000  20.3840000  -5.3540000  -1.4890000  20.8810000
  -5.5470000  -2.5970000  17.9560000  -5.1638985  -2.7781566  16.9524165
  -6.3720000  -1.3260000  17.8950000  -7.2353840  -1.5035974  17.2557730
  -6.7567729  -1.0617955  18.8757410  -6.4490000  -3.7540000  18.3350000
  -6.9567650  -3.5899885  19.2826179  -7.2033796  -3.8957101  17.5580886
  -5.8694527  -4.6659653  18.3893328  -5.5620000  -0.1150000  17.3150000
  -5.0393086  -0.4138261  16.4064889  -6.2545789   0.6879195  17.0696272
  -4.8517354   0.2715606  18.0418713  -4.5320000  -3.5640000  21.0900000
  -4.1282937  -4.3684866  20.6235738  -4.8760000  -3.6610000  22.4790000
  -5.9350384  -3.4383581  22.5968513  -4.1550000  -2.6590000  23.3480000
  -4.6130000  -2.3620000  24.4380000  -4.6290000  -5.0700000  22.9740000
  -4.7571081  -5.0992703  24.0571898  -3.6035727  -5.3682721  22.7553555
  -5.6070000  -6.0640000  22.3440000  -5.4075502  -7.0503552  22.7687233
  -5.4021564  -6.1254948  21.2744686  -7.0930000  -5.7200000  22.5610000
  -7.9570000  -5.9510000  21.6400000  -7.4260000  -5.2440000  23.6620000
  -3.0430000  -2.0960000  22.8760000  -2.7116987  -2.3650492  21.9541370
  -2.3090000  -1.0810000  23.6240000  -2.2624584  -1.3667404  24.6738256
  -2.9790000   0.2920000  23.5590000  -2.5340000   1.2240000  24.2380000
  -0.8640000  -0.9790000  23.1010000  -0.4167235  -0.0611037  23.4844607
  -0.8781218  -0.8811341  22.0147107   0.0500000  -2.1200000  23.4850000
   0.0250000  -3.3240000  22.8140000  -0.6715282  -3.4679641  22.0002504
   0.9380000  -1.9940000  24.5260000   0.9882347  -1.0615911  25.0730621
   0.8960000  -4.3720000  23.1620000   0.8671268  -5.3114702  22.6342076
   1.8260000  -3.0190000  24.8710000   2.5312013  -2.8748294  25.6798315
   1.7720000  -4.2030000  24.2200000   2.6380000  -5.2070000  24.5670000
   3.2028105  -4.9492344  25.3020851  -3.9510000   0.4840000  22.6790000
  -4.2834039  -0.3170465  22.1527968  -4.5870000   1.7570000  22.3790000
  -3.9128079   2.5502148  22.7030906  -5.9060000   2.0020000  23.0760000
  -6.7420000   1.1150000  23.1660000  -4.7920000   1.9790000  20.8540000
  -5.4041171   1.1715484  20.4508623  -5.3460538   2.9057658  20.7126993
  -3.5220000   2.0640000  20.0810000  -2.7790000   0.9200000  19.8440000
  -3.1237019  -0.0331604  20.2097935  -3.0290000   3.2820000  19.6100000
  -3.5836867   4.1867166  19.7883649  -1.5900000   0.9780000  19.1320000
  -1.0275858   0.0731774  18.9529568  -1.8420000   3.3510000  18.9040000
  -1.4834039   4.3057736  18.5439819  -1.1300000   2.2010000  18.6560000
  -0.2064271   2.2279836  18.1076078  -6.0960000   3.2370000  23.5150000
  -5.3911195   3.9403037  23.3219614  -7.3970000   3.7050000  24.0010000
  -7.8023833   2.9863662  24.7148380  -8.3300000   3.8370000  22.8170000
  -7.9100000   3.9560000  21.6470000  -7.2580000   5.0780000  24.6640000
  -8.0273158   5.1975198  25.4280792  -6.2796908   5.1768367  25.1380375
  -7.3642305   5.8722670  23.9239438  -9.6230000   3.9010000  23.1170000
  -9.9429942   3.8135376  24.0670017 -10.5990000   4.1250000  22.0530000
 -10.5025795   3.3675937  21.2771080 -10.4340000   5.4730000  21.3710000
 -10.4980000   5.5910000  20.1380000 -12.0020000   4.0290000  22.6360000
 -12.7088585   4.5574235  21.9952860 -12.0179683   4.5371177  23.6025230
 -12.4730000   2.5990000  22.8340000 -13.3803221   2.6197833  23.4419600
 -11.7155343   2.0483293  23.3981422 -12.7810000   1.8780000  21.5260000
 -13.2570000   2.5550000  20.5870000 -12.5520000   0.6350000  21.4390000
 -10.1730000   6.5040000  22.1670000 -10.1649841   6.3626774  23.1613866
  -9.9690000   7.8710000  21.6610000 -10.3930059   7.9684785  20.6601722
  -8.4320000   7.9920000  21.5740000  -7.7320000   8.0290000  22.5890000
 -10.6000000   8.9550000  22.5420000 -10.3131672   9.9342548  22.1553508
 -10.2202155   8.8599013  23.5610290 -12.1080000   8.8620000  22.5610000
 -12.6650000   8.1360000  21.7050000 -12.7750000   9.4450000  23.4410000
  -7.9200000   7.9620000  20.3490000  -8.5419440   7.9135085  19.5569911
  -6.4910000   7.8820000  20.1260000  -5.9843674   8.5012925  20.8593276
  -6.1680000   8.4120000  18.7380000  -7.0360000   8.7540000  17.9480000
  -6.0560000   6.4260000  20.3260000  -6.4339578   6.0595794  21.2802777
  -4.6240000   6.3340000  20.3500000  -4.4016460   5.9436346  21.2079578
  -6.5440000   5.5450000  19.2250000  -7.6330488   5.5579269  19.1994655
  -6.1438364   5.8538344  18.2608879  -6.2312558   4.5216357  19.4193705
  -4.8750000   8.4930000  18.4440000  -4.1957560   8.1464334  19.1133186
  -4.4360000   8.8330000  17.0960000  -5.1210535   8.3678669  16.3900048
  -3.0430000   8.2540000  16.8600000  -2.3030000   7.9750000  17.7970000
  -4.4270000  10.3510000  16.8640000  -5.4144028  10.7249581  17.1322880
  -4.3186333  10.5311871  15.7951343  -3.4200000  11.1980000  17.6050000
  -3.7807138  12.2264415  17.6068738  -3.3775925  10.8635868  18.6425100
  -1.7410000  11.2030000  16.9160000  -1.9980000  11.8780000  15.3360000
  -2.0219937  11.0710754  14.6023557  -1.1852045  12.5615589  15.0861247
  -2.9448445  12.4170031  15.3007616  -2.7600000   8.0020000  15.5870000
  -3.4657701   8.2143706  14.8876219  -1.4770000   7.4790000  15.1220000
  -0.7294346   7.6226478  15.8918550  -1.0790000   8.2130000  13.8630000
  -1.8830000   8.3080000  12.9320000  -1.5890000   5.9960000  14.8300000
  -1.8063633   5.4800705  15.7663876  -2.4488609   5.8505510  14.1747616
  -0.3900000   5.3150000  14.1980000   0.9100000   5.5650000  14.5900000
   1.1133935   6.2685997  15.3829418  -0.5830000   4.3860000  13.2080000
  -1.5901228   4.1658363  12.8812453   1.9800000   4.8700000  14.0180000
   2.9916399   5.0523221  14.3554456   0.4500000   3.7180000  12.6190000
   0.2631372   2.9836744  11.8509267   1.7300000   3.9260000  13.0500000
   2.7570000   3.2160000  12.4710000   3.5952655   3.4168693  12.9045362
   0.1710000   8.6670000  13.7960000   0.7946064   8.5781339  14.5936372
   0.6520000   9.2140000  12.5540000   0.1012132   8.7685089  11.7233712
   2.1190000   8.8870000  12.3490000   2.9670000   9.2060000  13.1830000
   0.4410000  10.7140000  12.4900000   1.0809613  11.1911045  13.2304366
  -0.5931992  10.9218387  12.7594908   0.7110000  11.3510000  11.1430000
   0.1050122  10.8626589  10.3818330   1.7514137  11.1831241  10.8884420
   0.4690000  12.8290000  11.0770000   0.0280000  13.4620000  12.0400000
   0.7470000  13.4130000   9.9100000   0.6067926  14.4025077   9.8084462
   1.0501238  12.8272255   9.1315918   2.4230000   8.3080000  11.1890000
   1.6638079   8.1216508  10.5522843   3.7810000   8.3420000  10.6040000
   4.5527445   8.2848091  11.3774771   3.8480000   9.6800000   9.9020000
   3.0940000   9.9190000   8.9540000   3.9230000   7.1950000   9.6240000
   4.8390406   7.3264158   9.0543505   3.0891469   7.1865581   8.9220514
   4.0150000   5.8670000  10.3500000   4.9350000   5.6820000  11.1170000
   3.0670000   4.9650000  10.1170000   2.1930072   5.2555342   9.6954446
   3.1379124   4.1369642  10.6949421   4.6400000  10.6130000  10.4090000
   5.2406459  10.3663118  11.1920736   4.5330000  12.0170000  10.0380000
   3.5122119  12.3193953  10.2621759   4.6580000  12.3240000   8.5690000
   4.0690000  13.3560000   8.1690000   5.4270000  12.8830000  10.9120000
   6.4603117  12.5475377  10.8167354   5.3831061  13.9114879  10.5544430
   5.0280000  12.8550000  12.3870000   5.2118815  11.8586595  12.7834930
   5.6781191  13.5376326  12.9177197   3.3170000  13.2850000  12.7820000
   3.2920000  15.0220000  12.3780000   4.0707434  15.2664249  11.6577697
   2.3218899  15.2727954  11.9487684   3.4488677  15.6057442  13.2855437
   5.3400000  11.5470000   7.7210000   5.2730000  11.8150000   6.2800000
   5.5747821  12.8474246   6.0848094   3.9080000  11.5640000   5.6300000
   3.7800000  11.9090000   4.4570000   6.3110000  10.8490000   5.6700000
   6.8447559  11.3092351   4.8381688   5.8315773   9.9250225   5.3489985
   7.2410000  10.5450000   6.8460000   7.9611959  11.3340083   6.9999050
   7.7644324   9.5995150   6.7183809   6.3140000  10.4910000   8.0270000
   6.8671181  10.6917899   8.9454286   5.8233252   9.5185842   8.0661033
   2.9760000  10.9490000   6.3330000   3.1281505  10.7925618   7.3216607
   1.7160000  10.4870000   5.7690000   1.5828992  10.9064897   4.7736527
   0.5700000  10.9730000   6.6630000   0.7700000  11.4340000   7.7780000
   1.7290000   8.9720000   5.7180000   0.7702585   8.5990511   5.3605602
   1.8568413   8.6058996   6.7382256   2.8430000   8.3660000   4.8470000
   3.7997266   8.7914134   5.1417371   2.9840000   6.9080000   5.0220000
   3.8137694   6.5405435   4.4154534   3.1802795   6.6756094   6.0679643
   2.0697517   6.4052181   4.7043377   2.6220000   8.6870000   3.4080000
   1.6591072   8.2983963   3.0769737   3.4073141   8.2287105   2.8065801
   2.6613732   9.7632902   3.2438319  -0.6710000  10.9130000   6.1680000
  -1.7680000  11.4650000   6.9540000  -1.5441924  12.5173005   7.1274962
  -2.0430000  10.7610000   8.2710000  -1.8130000   9.5580000   8.3650000
  -2.9870000  11.3590000   6.0100000  -3.6706907  12.1993990   6.1324340
  -3.5105585  10.4140188   6.1691323  -2.3320000  11.3540000   4.6130000
  -2.0676529  12.3741373   4.3287424  -2.9881455  10.9103567   3.8635734
  -1.0820000  10.5430000   4.8000000  -1.3141561   9.4780867   4.7559173
  -0.3482376  10.8151803   4.0421077  -2.5870000  11.4520000   9.2570000
  -2.8950000  10.8290000  10.5370000  -2.0533740  10.2364737  10.8948700
  -4.1350000   9.9410000  10.4640000  -5.0020000  10.1190000   9.6270000
  -3.1260000  12.0240000  11.4620000  -3.8240358  11.7929826  12.2676728
  -2.1861881  12.3660713  11.8807042  -3.6840000  13.0800000  10.5160000
  -4.7375236  12.8777801  10.3161764  -3.5607006  14.0849442  10.9206881
  -2.8890000  12.8970000   9.2480000  -3.4834220  13.1858878   8.3807726
  -1.9633518  13.4713663   9.2966819  -4.2130000   9.0340000  11.4180000
  -3.4160017   8.9079217  12.0331937  -5.3970000   8.2450000  11.6950000
  -6.1561273   8.4047371  10.9271864  -5.9540000   8.6650000  13.0440000
  -5.2340000   8.6260000  14.0450000  -5.0490000   6.7710000  11.7320000
  -5.8924538   6.1982384  12.1176717  -4.1783165   6.6011231  12.3688071
  -4.8233120   6.4349676  10.7189526  -7.2440000   8.9900000  13.0840000
  -7.7983967   8.9112788  12.2450287  -7.9260000   9.3640000  14.3290000
  -7.2012774   9.4184792  15.1435220  -8.9910000   8.3240000  14.7360000
  -9.8320000   7.8920000  13.8810000  -8.5800000  10.7540000  14.2120000
  -9.1380665  10.8157918  13.2762668  -9.2977872  10.8715232  15.0256008
  -7.6010000  11.8770000  14.3010000  -7.0380000  12.4250000  13.1650000
  -7.3196720  12.0304620  12.1968020  -7.1670000  12.3620000  15.5120000
  -7.5530392  11.9294111  16.4275031  -6.0860000  13.4470000  13.2240000
  -5.6527989  13.8570939  12.3261486  -6.2240000  13.3820000  15.5780000
  -5.8930663  13.7364903  16.5424183  -5.6950000  13.9120000  14.4350000
  -4.7100000  14.9300000  14.5130000  -4.5027090  15.1272360  15.4256388
  -8.8920000   7.9120000  15.9970000  -8.1589242   8.2853898  16.5910006
  -9.7900000   6.8950000  16.5580000 -10.7629934   6.9247729  16.0662076
  -9.9433284   7.1036247  17.6178908  -9.2210000   5.5000000  16.4170000
  -8.4930000   5.2070000  15.4500000  -9.5420000   4.6080000  17.3590000
 -10.1159608   4.8997487  18.1505590  -8.9040000   3.3190000  17.4170000
  -7.8252900   3.4713803  17.4636134  -9.1470000   2.4970000  16.1760000
  -8.2350000   1.8280000  15.7220000  -9.3310000   2.5790000  18.7150000
 -10.4033535   2.3732577  18.6685498  -9.1592273   3.2687209  19.5377955
  -8.5980000   1.3060000  19.0200000  -8.7989592   0.5596913  18.2504383
  -7.5275400   1.5055081  19.0710188  -9.0830000   0.7950000  20.3820000
 -10.1692894   0.6782903  20.3326506  -8.9104417   1.5964607  21.1008566
  -8.5200000  -0.3920000  20.9720000  -7.7917426  -0.2665870  21.6613411
  -8.9360000  -1.6290000  20.7310000  -9.8290000  -1.8760000  19.7700000
 -10.0509203  -2.8223526  19.5222706 -10.2829538  -1.1054550  19.3075375
  -8.3960000  -2.6240000  21.4080000  -8.6582714  -3.5904435  21.2361849
  -7.7201268  -2.4284960  22.1183802 -10.3400000   2.5400000  15.5900000
 -11.1272141   2.9496679  16.0681705 -10.5470000   1.7340000  14.3770000
 -10.2878335   0.6945668  14.5991996  -9.6550000   2.1710000  13.2160000
  -9.1270000   1.3310000  12.5380000 -12.0140000   1.7570000  13.9590000
 -12.0992250   1.3022579  12.9707571 -12.3469521   2.7939017  13.8793050
 -12.9450000   0.9990000  14.8960000 -12.4940000   0.1710000  15.7310000
 -14.1720000   1.1540000  14.7950000  -9.5810000   3.4680000  12.9660000
 -10.0540894   4.1192146  13.5739098  -8.6760000   3.9720000  11.9230000
  -8.9725492   3.5215502  10.9729272  -7.2350000   3.5780000  12.1680000
  -6.5100000   3.2500000  11.2140000  -8.7960000   5.4810000  11.7800000
  -8.1665291   5.8198834  10.9560114  -9.8308704   5.7479405  11.5612006
  -8.4815788   5.9716460  12.7015020  -6.8210000   3.6210000  13.4110000
  -7.4633838   3.9249020  14.1365155  -5.4650000   3.1890000  13.7700000
  -4.7533351   3.7511448  13.1661978  -5.2740000   1.7210000  13.4030000
  -4.2940000   1.3710000  12.7700000  -5.1430000   3.4610000  15.2320000
  -5.8963903   2.9877575  15.8592881  -3.8020000   2.8510000  15.6230000
  -3.8182507   1.7651903  15.5364794  -3.5892998   3.0868777  16.6651663
  -3.0074248   3.2569611  14.9975586  -5.1640000   4.9750000  15.5410000
  -6.1683897   5.3016740  15.7728429  -4.7894648   5.5482425  14.6937359
  -4.5414192   5.1887631  16.4106411  -6.2290000   0.8800000  13.8170000
  -7.0239229   1.2185105  14.3552871  -6.1360000  -0.5330000  13.5120000
  -5.2087446  -0.9140878  13.9405875  -6.0780000  -0.7960000  12.0120000
  -5.2770000  -1.6230000  11.5410000  -7.2910000  -1.3000000  14.1370000
  -8.2116846  -1.0977357  13.5879495  -7.4229985  -0.9506359  15.1575197
  -7.0160000  -2.8100000  14.1520000  -6.9173458  -3.1545578  13.1201600
  -6.0550713  -2.9749438  14.6459656  -8.0590000  -3.6560000  14.8350000
  -9.0020000  -3.0970000  15.4120000  -7.8520000  -4.8790000  14.8270000
  -6.8890000  -0.0790000  11.2650000  -7.5521667   0.5476409  11.7146960
  -6.9590000  -0.2880000   9.8320000  -7.1011807  -1.3502176   9.6274134
  -5.6600000   0.1320000   9.1510000  -5.2270000  -0.4800000   8.1780000
  -8.1120000   0.4780000   9.2440000  -8.0584339   1.5053370   9.6099673
  -8.0236195   0.5012308   8.1563394  -9.4470000  -0.1240000   9.6000000
  -9.6400447  -0.9820944   8.9564929  -9.4239046  -0.4872408  10.6274615
 -10.5990000   0.8340000   9.4920000 -10.4760000   1.8530000   8.8480000
 -11.7360000   0.5020000  10.1180000 -11.7488101  -0.2940734  10.7314469
 -12.4718095   1.1835933  10.0880731  -5.0160000   1.1540000   9.6990000
  -5.4754606   1.6865785  10.4320259  -3.7260000   1.6110000   9.1920000
  -3.7903805   1.7761002   8.1165285  -2.6580000   0.5570000   9.4540000
  -1.8740000   0.2160000   8.5660000  -3.3290000   2.9490000   9.8750000
  -3.3411045   2.8281306  10.9571540  -4.2740000   3.9440000   9.5050000
  -4.4772486   4.4740519  10.2771896  -1.9430000   3.4080000   9.4460000
  -1.7050044   4.3399358   9.9612297  -1.1824286   2.6684653   9.6944006
  -1.9335198   3.6019775   8.3721604  -2.5960000   0.0500000  10.6760000
  -3.2747055   0.3497066  11.3718079  -1.6140000  -0.9570000  11.0180000
  -0.6164438  -0.5909530  10.7799937  -1.8420000  -2.2060000  10.1640000
  -0.8910000  -2.8170000   9.6960000  -1.7080000  -1.2620000  12.5160000
  -2.7519819  -1.4560745  12.7688588  -1.1482641  -2.1763847  12.7170752
  -1.1650000  -0.1560000  13.4460000  -1.6503720   0.7873243  13.1982351
  -1.4940000  -0.4850000  14.9020000  -0.9965540  -1.4054401  15.2084200
  -1.1420012   0.3273168  15.5403337  -2.5742363  -0.5620810  15.0335003
   0.3400000   0.0360000  13.3080000   0.8612573  -0.8955205  13.5283437
   0.5955546   0.3635120  12.3021053   0.6747917   0.8063277  14.0024797
  -3.0940000  -2.5960000   9.9560000  -3.8627640  -2.1102576  10.4102168
  -3.3870000  -3.7830000   9.1390000  -2.8572188  -4.6372171   9.5635548
  -2.8630000  -3.5910000   7.7200000  -2.3070000  -4.5180000   7.1110000
  -4.8930000  -4.1040000   9.1480000  -5.2332241  -4.2628329  10.1729642
  -5.4541738  -3.2759335   8.7118335  -5.0778659  -5.0083652   8.5663987
  -3.0130000  -2.4090000   7.1730000  -3.5261556  -1.6895875   7.6722549
  -2.4680000  -2.1120000   5.8510000  -2.8267691  -2.8422899   5.1243248
  -2.7966558  -1.1182375   5.5480675  -0.9440000  -2.1310000   5.8650000
  -0.3240000  -2.7200000   4.9910000  -0.3480000  -1.4890000   6.8950000
  -0.9059824  -1.0007464   7.5881737   1.1080000  -1.5080000   6.9860000
   1.5347497  -0.9578456   6.1462947   1.6920000  -2.8880000   6.9740000
   2.6700000  -3.1490000   6.2410000   1.5160000  -0.8110000   8.3180000
   0.8616158  -1.1743276   9.1051515   1.3343354   0.2604817   8.2232656
   2.9580000  -1.0480000   8.8080000   3.1844611  -2.1114080   8.8623643
   3.9180000  -0.3850000   7.8670000   4.8850034  -0.4283161   8.3517217
   3.6583188   0.6658764   7.7423486   3.9010679  -0.8694259   6.8958225
   3.1840000  -0.4850000  10.1850000   2.5013325  -0.9662648  10.8857943
   4.2036825  -0.6898217  10.5118274   3.0085147   0.5908693  10.1902032
   1.1070000  -3.7780000   7.7480000   0.3431925  -3.4954579   8.3550289
   1.6520000  -5.1100000   7.8720000   2.7369922  -5.0511270   7.8787708
   1.3040000  -5.9890000   6.6860000   1.7720000  -7.1290000   6.5970000
   1.1980000  -5.7200000   9.1900000   1.5034914  -6.7668926   9.2200990
   0.1082364  -5.6913387   9.2436806   1.8100000  -5.0320000  10.4140000
   1.0060000  -4.6610000  11.4530000  -0.0565755  -4.8457145  11.4044837
   3.1550000  -4.7880000  10.5040000   3.8169096  -5.1184598   9.7153334
   1.5500000  -4.0220000  12.5610000   0.9008138  -3.6942023  13.3559758
   3.7050000  -4.1740000  11.6040000   4.7728472  -4.0352864  11.6627771
   2.8960000  -3.7870000  12.6210000   3.3235660  -3.3026208  13.4875929
   0.5050000  -5.4850000   5.7390000   0.1199158  -4.5569122   5.8596991
   0.3030000  -6.1730000   4.4620000   0.2392492  -7.2482564   4.6326599
   1.4690000  -5.9260000   3.5250000   1.7360000  -6.7420000   2.6470000
  -0.9990000  -5.7220000   3.8260000  -0.9786362  -4.6540965   3.6164739
  -2.0710000  -6.0200000   4.7440000  -1.9558268  -5.5050627   5.5595127
  -1.3300000  -6.4660000   2.5640000  -2.3569115  -6.2438928   2.2722680
  -1.2316964  -7.5401776   2.7258883  -0.6678104  -6.1571271   1.7556451
   2.1910000  -4.8170000   3.7100000   1.9400612  -4.1914068   4.4668162
   3.2730000  -4.4480000   2.8190000   3.2894112  -5.1503608   1.9861840
   4.6610000  -4.5750000   3.4250000   5.6330000  -4.7160000   2.6740000
   3.0570000  -3.0670000   2.1600000   3.8508562  -2.9119693   1.4287938
   1.7460000  -3.0390000   1.4270000   0.9044242  -3.1210968   2.1175252
   1.7040014  -3.8662444   0.7170552   1.6507757  -2.1042562   0.8724309
   3.0860000  -1.9620000   3.0970000   2.9469454  -1.0199873   2.5653462
   2.2915813  -2.0641061   3.8369291   4.0458777  -1.9228693   3.6093841
   4.7790000  -4.5170000   4.7520000   3.9693309  -4.3789528   5.3498561
   6.0910000  -4.6530000   5.3400000   6.7328601  -5.2042724   4.6598141
   6.0720000  -5.4110000   6.6310000   5.0160000  -5.5810000   7.2700000
   6.7310000  -3.3200000   5.6180000   6.6955269  -2.7664656   4.6834624
   7.7829634  -3.4634952   5.8669104   6.1290000  -2.5780000   6.6640000
   5.0566149  -2.5573359   6.5015109   6.3168835  -3.0579528   7.6253303
   6.7710000  -0.7840000   6.7640000   6.4930000  -0.2530000   5.1590000
   5.4824629  -0.5230219   4.8535215   6.5985291   0.8312348   5.1159011
   7.2209740  -0.6959779   4.4804028   7.2350000  -5.9680000   6.9740000
   8.0245886  -5.8087437   6.3575146   7.5130000  -6.5800000   8.2610000
   6.5892622  -6.7327089   8.8197542   8.4370000  -5.6750000   9.0380000
   9.4150000  -5.1940000   8.4950000   8.2040000  -7.9380000   8.0660000
   7.5136060  -8.6179320   7.5666546   9.0891608  -7.8122308   7.4423997
   8.5930000  -8.5030000   9.3180000   9.5792481  -8.4992388   9.4136780
   8.1330000  -5.5060000  10.3190000   7.3180446  -5.9822917  10.6998145
   9.0700000  -4.8900000  11.2550000   9.7314091  -4.1939018  10.7367885
   9.9100000  -6.0770000  11.8070000   9.4280000  -6.8940000  12.5800000
   8.3540000  -4.1440000  12.3630000   7.6767323  -4.8330279  12.8720910
   7.5320000  -3.0020000  11.7790000   6.8883566  -3.3667766  10.9792046
   8.2151263  -2.2713628  11.3540244   9.3580000  -3.6200000  13.3670000
   8.8542760  -3.0864633  14.1716466  10.0652247  -2.9421062  12.8846312
   9.9120034  -4.4368242  13.8283115   6.6390000  -2.2520000  12.7920000
   7.2476856  -1.6530518  13.4691534   6.0446602  -2.9652552  13.3626545
   5.9671745  -1.5851792  12.2511852  11.1250000  -6.1850000  11.3180000
  11.4666050  -5.4684334  10.6855248  11.9950000  -7.3080000  11.6640000
  11.3908479  -8.2058308  11.8122217  12.7380000  -7.1070000  12.9550000
  13.1820000  -8.1110000  13.5380000  12.9830000  -7.5720000  10.5530000
  13.3834757  -6.6246875  10.1895791  13.8174522  -8.1599966  10.9392340
  12.3860000  -8.3530000   9.3870000  11.2380000  -8.8400000   9.5080000
  13.0540000  -8.5230000   8.3420000  12.9350000  -5.8640000  13.4190000
  12.5503296  -5.0817132  12.9035290  13.6850000  -5.6060000  14.6490000
  13.3305451  -6.2561938  15.4509867  13.4330000  -4.1470000  15.0250000
  13.1490000  -3.2980000  14.1750000  15.1600000  -5.8150000  14.4170000
  15.4390151  -5.4504470  13.4347537  15.3676731  -6.8851493  14.4477862
  15.7477000  -5.3107230  15.1838029  13.5050000  -3.8830000  16.3170000
  13.6875663  -4.6243268  16.9784361  13.4010000  -2.5430000  16.8530000
  13.5854200  -1.7955172  16.0808836  14.4540000  -2.4080000  17.9440000
  14.5850000  -3.3000000  18.8060000  12.0480000  -2.2650000  17.4860000
  11.8831733  -2.9880870  18.2864500  11.9940000  -0.8530000  18.1300000
  12.5256477  -0.1329058  17.5049459  12.4506935  -0.8822513  19.1209166
  10.9587656  -0.5236908  18.2339407  10.9470000  -2.4540000  16.5270000
  10.0001082  -2.2085904  17.0063768  11.0846450  -1.8047326  15.6610922
  10.8953736  -3.4916720  16.2024871  15.2660000  -1.3500000  17.8830000
  15.1497547  -0.6819607  17.1228164  16.1880000  -1.0240000  18.9560000
  15.9944508  -1.6721113  19.8122677  15.9550000   0.4010000  19.3970000
  15.9880000   1.3220000  18.5520000  17.6620000  -1.1950000  18.5820000
  17.9173174  -0.5461426  17.7449992  17.8133310  -2.2345534  18.2910811
  18.5580000  -0.8730000  19.7880000  18.5858923   0.2115626  19.9169610
  18.0847082  -1.2936282  20.6792968  19.9680000  -1.3880000  19.7450000
  20.3950000  -1.9990000  18.7550000  20.6510000  -1.1390000  20.7600000
  15.6890000   0.5950000  20.6840000  15.6980140  -0.1890341  21.3210000
  15.4580000   1.9280000  21.2230000  15.2783464   2.6395301  20.4200557
  16.7190000   2.3590000  21.9550000  17.0730000   1.7640000  22.9700000
  14.2360000   1.9660000  22.1600000  14.3724770   1.2379504  22.9608182
  13.0360000   1.6150000  21.4290000  13.0007180   2.1565976  20.6413697
  14.0180000   3.3300000  22.7840000  13.0502913   3.3512551  23.2850499
  14.0441140   4.1051195  22.0179582  14.7929647   3.5305353  23.5248076
  17.3850000   3.3640000  21.4460000  17.0294383   3.8273243  20.6181959
  18.6100000   3.8810000  22.0620000  19.2143341   3.0368267  22.4014266
  18.3320000   4.7380000  23.2690000  19.0430000   4.6870000  24.2810000
  19.4500000   4.6920000  21.0570000  18.9510317   5.6450951  20.8728410
  20.4147933   4.9175264  21.5146048  19.6970000   4.0180000  19.7580000
  19.2760000   4.6250000  18.5660000  18.7748189   5.5814386  18.5998847
  20.3560000   2.8230000  19.6870000  20.7148368   2.3288553  20.5809838
  19.4540000   4.0050000  17.3420000  19.1476569   4.5121802  16.4436333
  20.5270000   2.2190000  18.4570000  21.0315012   1.2617755  18.3998811
  20.0950000   2.8410000  17.2940000  20.2757108   2.3613131  16.3421877
  17.3260000   5.5980000  23.1520000  16.7811851   5.5885008  22.2999618
  17.0080000   6.5870000  24.1670000  17.5185106   6.3368563  25.0899677
  15.5110000   6.6260000  24.4180000  14.7220000   6.5490000  23.4670000
  17.4430000   8.0020000  23.7310000  16.8466958   8.3199993  22.8766025
  17.2322740   8.6886692  24.5505908  18.8800000   8.1340000  23.4040000
  19.3340000   8.7820000  22.2890000  18.7633387   9.2373921  21.5684489
  19.9890000   7.6780000  24.0310000  19.9978692   7.0888633  24.9386402
  20.6580000   8.7510000  22.2810000  21.2858679   9.2110501  21.5327004
  21.0900000   8.0900000  23.3310000  15.1310000   6.7300000  25.6860000
  15.8340088   6.7155991  26.4235133  13.7730000   6.9040000  26.0760000
  13.2531625   7.3434833  25.2359231  13.7090000   7.8920000  27.2170000
  14.5650000   7.8680000  28.0870000  13.0870000   5.5590000  26.3910000
  13.1691238   4.9402717  25.4954540  11.6170000   5.7630000  26.6780000
  11.4933010   6.2606501  27.6407835  11.1913132   6.4088788  25.9124358
  13.7360000   4.8060000  27.5340000  13.3546383   3.7881871  27.5862151
  14.8158214   4.7473169  27.3933428  13.5451647   5.3059950  28.4876390
  10.7680000   4.4550000  26.6900000  10.8559924   3.9504816  25.7286451
  11.0969722   3.7895781  27.4862206   9.7218483   4.7072623  26.8572571
  12.7350000   8.7770000  27.1850000  12.0408812   8.7345739  26.4461829
  12.5560000   9.7250000  28.2500000  13.2290776  10.5686601  28.1137937
  12.7565172   9.2546607  29.2161751  11.1630000  10.2200000  28.2620000
  10.3420000   9.8670000  27.3900000  10.8190000  11.0350000  29.2440000
  11.4233779  11.1667567  30.0503770   9.4160000  11.4660000  29.3030000
   9.1051362  11.7321035  28.2961384   9.2230000  12.6690000  30.1530000
  10.0030000  12.9180000  31.0580000   8.4820000  10.3830000  29.8340000
   7.4548886  10.7475943  29.8469243   8.5289957   9.5084252  29.1864813
   8.8480000   9.9930000  31.1600000   9.7069497   9.4942206  31.1008317
   8.1770000  13.4410000  29.8340000   7.6012537  13.1576512  29.0459188
   7.7060000  14.5840000  30.6620000   7.7350600  14.3008853  31.7142016
   6.2770000  14.9190000  30.2600000   5.8830000  14.7820000  29.1020000
   8.5290000  15.9050000  30.4710000   8.0718822  16.6878250  31.0785333
   8.4172738  16.2110909  29.4316934   9.9060000  15.8830000  30.7740000
  10.0635068  16.1917946  31.6716246   5.4970000  15.4440000  31.2070000
   5.9025500  15.6287051  32.1137907   4.1780000  15.9810000  30.9530000
   3.7125775  16.2190215  31.9111560   3.2480000  15.0590000  30.2220000
   2.4600000  15.5060000  29.3850000   4.2980000  17.2770000  30.1440000
   3.3377000  17.7918062  30.1144159   4.5961858  17.0555590  29.1188181
   5.3160000  18.2400000  30.7600000   5.3760000  18.3990000  31.9950000
   6.1290000  18.8740000  29.9200000   6.7945016  19.5196832  30.3219787
   6.0620076  18.7804796  28.9207134   3.3450000  13.7880000  30.5120000
   4.0190855  13.4740397  31.1915017   2.4440000  12.8470000  29.9350000
   1.4398704  13.2678881  29.8643596   2.3951078  11.9626837  30.5717137
   2.8710000  12.3920000  28.5540000   2.1170000  11.5680000  27.9690000
   4.0990000  12.7730000  28.0930000   4.6511397  13.4326253  28.6271983
   4.6420000  12.3100000  26.8100000   3.9296365  11.6241851  26.3599472
   5.9560000  11.5410000  27.0120000   6.8400000  11.9770000  27.7390000
   4.8660000  13.4620000  25.8580000   5.2964440  13.0710780  24.9357402
   5.5992641  14.1369164  26.3027388   3.6330000  14.2580000  25.5170000
   3.2274335  14.6908786  26.4314766   3.9610000  15.4120000  24.6010000
   4.3720949  15.0453194  23.6607607   4.6891568  16.0606456  25.0843253
   3.0614847  15.9936333  24.4000799   2.5570000  13.4060000  24.8970000
   2.9688121  12.8264350  24.0706871   2.1539784  12.7279221  25.6453152
   1.7453664  14.0355337  24.5343030   6.0240000  10.4070000  26.3270000
   5.2203295  10.1371266  25.7675631   7.1990000   9.5900000  26.2460000
   7.9194645   9.8932698  27.0017728   7.8280000   9.7650000  24.8570000
   7.1250000   9.6990000  23.8520000   6.8260000   8.0820000  26.4970000
   6.0820557   7.7839630  25.7653105   8.0400000   7.2120000  26.3100000
   8.3554359   7.2065891  25.2672672   8.8605060   7.5634909  26.9360248
   7.7921814   6.1890492  26.5901565   6.2160000   7.8890000  27.8760000
   5.4820688   8.6598910  28.1102450   6.9953241   7.8932659  28.6382114
   5.7078058   6.9245778  27.9066928   9.1390000   9.8930000  24.8340000
   9.6559257   9.8671721  25.7069959   9.8710000  10.0500000  23.5870000
   9.1860625  10.0903760  22.7480556  10.8230000   8.8540000  23.4270000
  11.4610000   8.4420000  24.3970000  10.6910000  11.3570000  23.6140000
  11.2259899  11.4541279  22.6684139  11.4353658  11.2962907  24.4097188
   9.8480000  12.5790000  23.8240000   9.5960000  13.0470000  25.1050000
  10.0114346  12.5135877  25.9498608   9.2920000  13.2880000  22.7810000
   9.4649348  12.9435215  21.7707471   8.8090000  14.1550000  25.3320000
   8.6132518  14.4819824  26.3417602   8.5040000  14.4080000  22.9770000
   8.0728887  14.9418332  22.1429232   8.2690000  14.8470000  24.2650000
   7.4960000  15.9630000  24.4140000   7.4164692  16.2146498  25.3350412
  10.9570000   8.3230000  22.1900000  10.3931080   8.7129915  21.4397403
  11.8450000   7.2090000  21.8930000  12.4791934   6.9967194  22.7505145
  12.7250000   7.5290000  20.7020000  12.1470000   7.8280000  19.6290000
  11.0780000   5.8870000  21.5200000  11.8071846   5.1060839  21.3008045
  10.2280000   6.0530000  20.3880000  10.6823119   6.7042469  19.8300684
  10.1670000   5.4120000  22.6910000   9.6790451   4.4788781  22.4082087
  10.7723812   5.2432280  23.5810925   9.4076032   6.1628462  22.9092181
  14.0360000   7.3750000  20.7910000  14.4323626   7.0974974  21.6861925
  14.9300000   7.4640000  19.6480000  14.4089430   7.8830757  18.7875229
  15.3450000   6.0610000  19.2890000  15.9100000   5.3640000  20.1450000
  16.1420000   8.3600000  19.9720000  16.8096217   7.8498831  20.6660959
  15.7860570   9.2797172  20.4378349  16.8940000   8.7080000  18.7140000
  16.1703139   9.0456566  17.9690159  17.3772264   7.8070912  18.3295420
  17.9510000   9.8070000  18.8870000  18.3780000  10.0690000  20.0370000
  18.3300000  10.4060000  17.8400000  15.0240000   5.6240000  18.0640000
  14.6233755   6.2682691  17.3824207  15.1330000   4.2220000  17.7040000
  15.9261195   3.7809388  18.3102351  15.5820000   3.9980000  16.2990000
  15.6230000   4.9100000  15.4850000  13.8970000   3.4580000  17.9800000
  13.6859298   3.6506029  19.0339093  14.0808404   2.3924547  17.9130504
  12.7960000   3.6220000  17.3170000  12.6388426   4.6795484  17.0989229
  12.8561172   3.0863551  16.3672619  11.4830000   3.0850000  18.2540000
  11.1905216   3.8224669  19.0017973  11.7100835   2.1242546  18.7208078
  10.5450000   2.8940000  17.2440000  10.7318297   2.1345048  16.5813772
   9.5350000   3.6890000  16.9440000   9.2090000   4.7480000  17.6520000
   8.4968326   5.3738398  17.2695225   9.6517787   4.9374050  18.5320314
   8.8140000   3.3900000  15.8900000   9.0865549   2.5881562  15.3136626
   8.0506949   3.9918922  15.5681893  15.8920000   2.7320000  16.0080000
  15.8700129   2.0515870  16.7629933  15.9370000   2.2290000  14.6560000
  15.6020416   3.0034424  13.9763281  14.9950000   1.0690000  14.5440000
  14.9900000   0.1700000  15.3880000  17.3550000   1.7940000  14.2240000
  17.7787672   1.1792103  15.0184700  17.3580000   0.9720000  12.9460000
  16.8407307   0.0241885  13.0958400  16.9096875   1.5528403  12.1378554
  18.3817027   0.7258248  12.6721244  18.2380000   3.0250000  14.0510000
  19.2846657   2.7233601  14.0241332  17.9885530   3.5298925  13.1165160
  18.0753680   3.7268284  14.8584481  14.1510000   1.0830000  13.4910000
  14.1766396   1.8662222  12.8457395  13.2980000  -0.0550000  13.1590000
  13.3637914  -0.8185612  13.9328829  13.8000000  -0.6180000  11.8610000
  14.0100000   0.1140000  10.8990000  11.8340000   0.3300000  13.0140000
  11.7425481   1.1084592  12.2547127  11.2813662  -0.5476247  12.6755342
  11.1870000   0.8230000  14.2960000  11.8330000   1.0160000  15.3160000
   9.9290000   1.0550000  14.3020000  14.0070000  -1.9320000  11.8310000
  13.7426845  -2.4794137  12.6440451  14.3990000  -2.6270000  10.5920000
  14.9745085  -1.9586962   9.9511368  13.1570000  -3.0440000   9.8720000
  12.3540000  -3.8300000  10.4210000  15.2560000  -3.8690000  10.8960000
  14.6781186  -4.5735873  11.4927290  15.6460000  -4.5470000   9.6040000
  16.6933285  -4.3679414   9.3571839  15.4657254  -5.6182206   9.6934543
  15.0633133  -4.2047997   8.7509707  16.4870000  -3.4450000  11.6830000
  16.2630957  -3.5830659  12.7328406  16.7550315  -2.4030045  11.5048755
  17.3350888  -4.0627996  11.4030519  12.9020000  -2.4960000   8.6880000
  13.5925769  -1.8426781   8.3287832  11.7110000  -2.6840000   7.8750000
  10.9749889  -3.2504456   8.4462397  12.0340000  -3.4710000   6.6140000
  12.9460000  -3.1240000   5.8910000  11.0780000  -1.3420000   7.5060000
  10.5275721  -1.4862134   6.5762659  11.8868423  -0.6507137   7.2607487
  10.1140000  -0.6100000   8.4600000  10.0069027   0.4014520   8.0670121
   8.7430000  -1.2120000   8.4790000   8.0390235  -0.4378607   8.7870187
   8.6559573  -1.9209389   7.6596693   8.6894558  -1.8781004   9.3300659
  10.6830000  -0.4940000   9.8440000  10.7208786  -1.4670535  10.3331421
  11.6851142  -0.0720271   9.7873497  10.0567332   0.1756442  10.4340720
  11.2430000  -4.5140000   6.3640000  10.5385763  -4.7624589   7.0554705
  11.4250000  -5.3630000   5.2110000  12.2618142  -5.0208893   4.6045876
  10.1640000  -5.3020000   4.3620000   9.0440000  -5.5680000   4.8410000
  11.7190000  -6.7970000   5.6370000  12.6655936  -6.8046522   6.1760574
  10.9462251  -7.1148408   6.3377088  11.7790000  -7.7850000   4.4990000
  10.7789113  -7.9302893   4.0886957  12.4150433  -7.3781185   3.7107717
  12.3520000  -9.1470000   4.9030000  13.4120241  -9.0119355   5.1313682
  12.2835862  -9.8451542   4.0675358  11.7020000  -9.6560000   6.0790000
  12.1116336  -9.3782243   6.9803299  10.5840000 -10.3870000   6.0940000
   9.9630000 -10.7500000   4.9680000  10.3565358 -10.4376317   4.1005512
   9.0864578 -11.2289881   5.0220458  10.1170000 -10.7860000   7.2510000
  10.5600304 -10.3896013   8.0845266   9.3281288 -11.3925182   7.3241484
  10.3250000  -4.9280000   3.1070000  11.2671135  -4.7662356   2.7637094
   9.2220000  -4.8250000   2.1730000   8.3623656  -4.3658343   2.6658534
   8.8350000  -6.2270000   1.7160000   9.6740000  -6.9950000   1.2020000
   9.6110000  -3.9600000   0.9980000   8.8662251  -4.0325681   0.2064761
  10.5744296  -4.2889179   0.6116017   9.6929666  -2.9206698   1.3157514
   7.5950000  -6.6020000   1.9220000   6.9315547  -5.9474232   2.3245210
   7.1330000  -7.9060000   1.5310000   7.8471465  -8.6415502   1.9013954
   7.1510000  -8.0960000   0.0000000   7.5190000  -9.1860000  -0.4580000
   5.7650000  -8.2390000   2.1500000   5.0234405  -7.5297724   1.7825318
   5.4671322  -9.2314274   1.8077922   5.7280000  -8.2260000   3.6820000
   5.9472757  -7.2116137   4.0048590   4.3430000  -8.5470000   4.1980000
   3.5934218  -8.0335615   3.6024174   4.1568764  -9.6194815   4.1412361
   4.2406080  -8.2151204   5.2337873   6.7830000  -9.1160000   4.2890000
   6.6839951 -10.1256473   3.8886348   7.7777229  -8.7190161   4.0879695
   6.6392587  -9.1417704   5.3698837   6.8100000  -7.1020000  -0.8250000
   6.8550000  -7.3090000  -2.2900000   6.2274843  -8.1584695  -2.5633449
   8.2540000  -7.4940000  -2.8810000   8.3780000  -8.0860000  -3.9600000
   6.2610000  -6.0200000  -2.8430000   5.6422180  -6.2155634  -3.7199257
   7.0546609  -5.3215756  -3.1128167   5.4910000  -5.4390000  -1.7720000
   5.4361148  -4.3539526  -1.8630908   4.4817210  -5.8540075  -1.7980828
   6.1330000  -5.8370000  -0.4960000   5.3785827  -5.9584588   0.2802172
   6.8665028  -5.0861304  -0.2048960   9.2920000  -6.9750000  -2.2370000
   9.1493629  -6.4848169  -1.3677739  10.6120000  -6.9780000  -2.8290000
  10.5870633  -7.4028216  -3.8319879  11.6830000  -7.7720000  -2.0680000
  12.7540000  -8.0230000  -2.6290000  11.1040000  -5.5220000  -2.9790000
  12.0224244  -5.5158570  -3.5672663  11.3770000  -4.9780000  -1.6820000
  11.4766785  -4.0143494  -1.8168013  10.0710000  -4.6430000  -3.6720000
   9.6968968  -5.1428385  -4.5655829  10.5274056  -3.7038332  -3.9740454
   9.2438300  -4.4181414  -3.0003147  11.4510000  -8.0950000  -0.7950000
  10.5759140  -7.8105514  -0.3699417  12.4240000  -8.7750000   0.0390000
  12.8948385  -9.5776608  -0.5296949  11.9100420  -9.2082490   0.8956232
  13.5290000  -7.8510000   0.5660000  14.4260000  -8.2930000   1.3180000
  13.5120000  -6.5750000   0.1600000  12.7487484  -6.2558004  -0.4259584
  14.5580000  -5.6410000   0.5470000  15.5084531  -6.1707433   0.6301027
  14.2430000  -5.0300000   1.9180000  13.0710000  -4.8300000   2.2630000
  14.6840000  -4.5590000  -0.5190000  13.7080110  -4.1071910  -0.6925981
  15.3561571  -3.7824110  -0.1486059  15.2400000  -5.0830000  -1.8430000
  16.1625922  -5.6290087  -1.6405776  14.5229665  -5.7757572  -2.2854068
  15.5530000  -3.9650000  -2.8770000  16.2524689  -3.2632411  -2.4187569
  14.6361101  -3.4217471  -3.1181927  16.1700000  -4.5260000  -4.1690000
  15.3900613  -5.0566527  -4.7245915  16.9361992  -5.2511708  -3.8830055
  16.7670000  -3.5070000  -5.0050000  17.2923753  -3.8887440  -5.7754025
  17.3102626  -2.8458212  -4.4669831  15.9939567  -2.9454197  -5.4051693
  15.2790000  -4.7430000   2.6740000  16.2055298  -4.8923685   2.3105818
  15.1440000  -4.2130000   4.0220000  14.1019092  -4.0428252   4.2324544
  15.9090000  -2.8820000   4.1320000  16.8200000  -2.5630000   3.3430000
  15.7190000  -5.2030000   5.0350000  16.7518823  -5.4362494   4.7712167
  15.7172014  -4.7303106   6.0186306  14.9760000  -6.4070000   5.1320000
  15.1415014  -6.8166111   5.9887107  15.5200000  -2.1150000   5.1500000
  14.7194778  -2.4116399   5.7017458  16.1040000  -0.8300000   5.4440000
  17.1450384  -0.8227341   5.1173829  16.0650000  -0.5840000   6.9370000
  15.0560000  -0.8450000   7.6040000  15.3490000   0.2550000   4.6920000
  15.3709301   0.0233445   3.6268688  14.3063885   0.2495336   5.0132396
  15.9320000   1.6420000   4.8800000  17.1160000   2.0070000   4.2820000
  17.6461584   1.2996895   3.6597165  15.2690000   2.6070000   5.6380000
  14.3343240   2.3447075   6.1142590  17.6390000   3.2980000   4.4670000
  18.5668227   3.6037604   4.0078085  15.7760000   3.8600000   5.8230000
  15.2700929   4.5890383   6.4333290  16.9620000   4.1800000   5.2680000
  17.5060000   5.4400000   5.4690000  16.8762029   6.1635972   5.5413794
  17.1430000  -0.0240000   7.4630000  17.9020257   0.2212011   6.8479528
  17.2390000   0.3990000   8.8540000  16.5847177  -0.2131227   9.4796517
  16.7890000   1.8450000   8.9640000  17.5050000   2.7590000   8.5470000
  18.6710000   0.2790000   9.3770000  18.7390433   0.8050225  10.3276306
  19.3663424   0.7490629   8.6816812  19.0930000  -1.1530000   9.5980000
  18.4970000  -2.1000000   9.0580000  20.1060000  -1.3250000  10.4440000
  20.5094330  -2.2477264  10.5271145  20.5519845  -0.5163041  10.8331977
  15.5850000   2.0570000   9.4810000  15.0395661   1.2694207   9.8245954
  14.9710000   3.3840000   9.5350000  15.4031159   4.0194835   8.7621778
  15.1800000   4.0400000  10.8810000  14.7530000   3.5390000  11.9090000
  13.4910000   3.2310000   9.2460000  13.0566095   2.6044193  10.0279370
  13.3770831   2.6851990   8.3084930  12.6480000   4.5170000   9.1500000
  12.7553014   5.0730955  10.0781374  13.1530000   5.3990000   8.0270000
  13.1388762   4.8259764   7.1005705  14.1626810   5.7530015   8.2506811
  12.4941566   6.2612573   7.9070856  11.1720000   4.1830000   8.9900000
  10.5729811   5.0849888   9.1082615  10.8665924   3.4596346   9.7452255
  10.9982694   3.7586136   8.0004787  15.7940000   5.2030000  10.8630000
  16.1639664   5.5406194   9.9880187  16.0010000   6.0250000  12.0600000
  16.2400370   5.3883084  12.9131471  14.7390000   6.8230000  12.3600000
  14.2610000   7.5710000  11.5180000  17.1760000   6.9720000  11.8190000
  16.9552198   7.6057053  10.9577824  17.3065671   7.6091742  12.6943334
  18.3780000   6.2800000  11.5880000  19.0009681   6.8742674  11.1600117
  14.2200000   6.6720000  13.5810000  14.6902515   6.0615534  14.2460627
  12.9600000   7.2580000  13.9760000  12.6272454   7.9898345  13.2402407
  13.0970000   7.9500000  15.3270000  13.7150000   7.3870000  16.2570000
  11.8670000   6.1390000  14.1090000  12.2262387   5.4181546  14.8453605
  11.6960000   5.4010000  12.7940000  11.1654866   6.0300275  12.0792446
  12.6604064   5.1510082  12.3642395  10.5460000   6.6990000  14.6210000
  10.2162029   7.5216352  13.9852184   9.7818753   5.9243679  14.6161006
  10.6357269   7.0417721  15.6505576  10.9760000   4.0780000  12.9250000
  11.0248733   3.5419386  11.9801413   9.9281963   4.2297750  13.1814622
  11.4574255   3.4745299  13.6934863  12.4380000   9.0780000  15.4720000
  11.9566704   9.4628069  14.6640297  12.1840000   9.6940000  16.7800000
  12.5637796   9.0355932  17.5529123  10.6710000   9.7570000  16.9000000
  10.0000000  10.2660000  16.0080000  12.8660000  11.0550000  16.8680000
  12.3844363  11.7354597  16.1643653  13.8974229  10.9153368  16.5542292
  12.9070000  11.7000000  18.2510000  11.8812804  11.8135559  18.5910225
  13.6420000  10.8980000  19.2840000  13.6904822   9.8560188  19.0168770
  13.1285782  10.9872561  20.2412569  14.6655750  11.2547227  19.4025012
  13.5440000  13.0830000  18.1750000  13.0954214  13.6303521  17.3564924
  13.3779279  13.6248367  19.1055247  14.6138515  13.0045601  17.9817849
  10.1520000   9.1820000  17.9740000  10.7741435   8.7952580  18.6734629
   8.7210000   9.1000000  18.1770000   8.1961835   9.6679736  17.4132318
   8.4003922   8.0625748  18.0963435   8.2880000   9.6170000  19.5140000
   9.0480000   9.6890000  20.4830000   7.0260000   9.9970000  19.5760000
   6.4676898   9.9296719  18.7281098   6.3800000  10.4980000  20.7750000
   7.0371067  10.3094742  21.6165383   5.0870000   9.7500000  21.0190000
   4.3330000   9.4420000  20.0930000   6.1720000  12.0380000  20.7120000
   7.1578293  12.4867059  20.5844467   5.3450000  12.4740000  19.5330000
   4.3328938  12.0793370  19.6064827   5.3004019  13.5603392  19.5077514
   5.8046924  12.1366829  18.6050241   5.6250000  12.5660000  22.0200000
   6.2919267  12.2851113  22.8371865   5.5727320  13.6550710  21.9763122
   4.6249990  12.1775979  22.2103761   4.8420000   9.4470000  22.3000000
   5.5338515   9.7019329  22.9975758   3.6800000   8.6690000  22.7490000
   2.9787794   8.5324106  21.9307536   3.0210000   9.3780000  23.9040000
   3.6760000   9.8420000  24.8240000   4.1110000   7.2860000  23.2790000
   3.2183559   6.7385698  23.5829391   4.7257180   7.4177708  24.1640289
   4.8870000   6.4520000  22.2930000   6.2090000   6.7030000  22.0200000
   6.7170655   7.5043979  22.5354106   4.2780000   5.4230000  21.6310000
   3.2339891   5.2062444  21.8064302   6.9220000   5.9430000  21.1120000
   7.9445733   6.1848780  20.9061851   4.9860000   4.6550000  20.7060000
   4.4872363   3.8648331  20.1631982   6.3050000   4.9440000  20.4450000
   6.8497849   4.3767294  19.7040084   1.7000000   9.4540000  23.8500000
   1.2165706   9.0247130  23.0676424   0.9080000   9.9440000  24.9500000
   1.5399319  10.3663561  25.7333247   0.1220000   8.7850000  25.5190000
  -0.5580000   8.0890000  24.7710000  -0.0410000  11.0080000  24.4700000
  -0.7301741  10.5716315  23.7450015   0.5120268  11.7999377  23.9660574
  -0.8390000  11.6110000  25.6460000  -0.1718667  12.1966079  26.2801099
  -1.2864742  10.8356270  26.2661993  -1.9150000  12.4400000  25.1190000
  -2.9050000  11.8980000  24.6510000  -1.7510000  13.7150000  25.1470000
  -0.9360301  14.1077686  25.5817249  -2.5154083  14.2635592  24.7924426
   0.2860000   8.5490000  26.8160000   0.8540356   9.1747749  27.3759156
  -0.4400000   7.4600000  27.5210000  -1.0230177   6.9069350  26.7935998
  -1.3990000   8.0410000  28.5340000  -1.0640000   8.9950000  29.2350000
   0.5050000   6.4870000  28.2010000   1.3023686   7.0349596  28.7071113
  -0.0512024   5.9478847  28.9696489   1.1160000   5.4280000  27.2570000
   0.2817555   4.9914389  26.7056743   2.0730000   6.0080000  26.1780000
   1.5180897   6.6054055  25.4651489   2.5389797   5.1929468  25.6273962
   2.8487436   6.6090721  26.6538669   1.7630000   4.2690000  27.9430000
   2.1584788   3.5677896  27.2100076   1.0317904   3.7546239  28.5654298
   2.5751041   4.6246006  28.5790580  -2.6090000   7.5080000  28.5430000
  -2.8191125   6.7610708  27.8869051  -3.6340000   7.8680000  29.5310000
  -3.2448768   8.5797824  30.2592278  -4.0120000   6.5630000  30.2370000
  -4.5050000   5.6320000  29.6010000  -4.8260000   8.4940000  28.8260000
  -5.2565651   7.7702331  28.1342451  -4.3760000   9.6490000  28.0960000
  -3.6148932   9.3833304  27.5700779  -5.8970000   8.9630000  29.7820000
  -6.7208220   9.3914702  29.2106916  -6.2792224   8.1232606  30.3635997
  -5.4965571   9.7214204  30.4553141  -3.7790000   6.4900000  31.5510000
  -3.4170376   7.2976681  32.0342895  -4.0740000   5.2590000  32.3270000
  -3.5820426   5.3410555  33.2956906  -3.4800000   4.0120000  31.6540000
  -4.1060000   2.9470000  31.5730000  -5.5830000   5.1090000  32.5950000
  -5.7440546   4.2036781  33.1819603  -6.1235961   5.0172568  31.6520562
  -6.1310000   6.2960000  33.3790000  -5.5751865   6.3698964  34.3173648
  -5.9352841   7.2114789  32.8157640  -7.6070000   6.2500000  33.6980000
  -8.1560000   5.1580000  33.7570000  -8.2410000   7.3300000  33.8630000
  -2.2700000   4.1780000  31.1060000  -1.8129918   5.0736180  31.2051052
  -1.5110000   3.0770000  30.5440000  -1.6139519   2.2061583  31.1923536
  -0.4584465   3.3619287  30.5389070  -1.8720000   2.6480000  29.1370000
  -1.3380000   1.6310000  28.6760000  -2.7770000   3.3840000  28.5110000
  -3.2316646   4.1449863  29.0102928  -3.1830000   3.0910000  27.1280000
  -2.6339318   2.2276738  26.7543687  -2.7800000   4.2630000  26.2150000
  -2.7930000   5.4420000  26.5960000  -4.6750000   2.8370000  26.9800000
  -5.2151813   3.7123125  27.3472370  -4.9210690   2.7097638  25.9264240
  -5.1710000   1.5930000  27.7650000  -6.2611292   1.5709830  27.7354140
  -4.8575942   1.6569924  28.8079442  -4.6350000   0.3070000  27.1390000
  -4.9805492   0.2545657  26.1037056  -3.5464798   0.3628111  27.1274823
  -5.0070000  -0.9630000  27.8380000  -4.7289132  -0.8891405  28.8942088
  -6.0897673  -1.1040451  27.7623945  -4.2850000  -2.0940000  27.1780000
  -4.5274274  -2.1356540  26.1848153  -4.5474478  -2.9800719  27.5860972
  -3.2834016  -1.9786291  27.2452878  -2.4450000   3.9480000  24.9630000
  -2.4415259   2.9749818  24.6791221  -1.9430000   4.9590000  24.0380000
  -1.2430493   5.6020463  24.5748342  -3.0660000   5.8180000  23.5030000
  -4.0200000   5.3240000  22.8710000  -1.1680000   4.3260000  22.8690000
  -1.8377622   3.6273484  22.3645940   0.0390000   3.5330000  23.3780000
  -0.2623283   2.8747988  24.1923074   0.7909113   4.2199032  23.7693799
  -0.7380000   5.3820000  21.8390000  -0.1790197   4.9066806  21.0344648
  -0.1165734   6.1415033  22.3159852  -1.6072810   5.8539773  21.3788396
   0.6740000   2.6490000  22.3210000  -0.0878463   2.0317657  21.8426916
   1.4072736   1.9933942  22.7920205   1.1777018   3.2536877  21.5676586
  -2.9510000   7.1040000  23.7650000  -2.2049833   7.4225286  24.3770316
  -3.8420000   8.1000000  23.2520000  -4.7262534   7.6158402  22.8389781
  -3.2510000   8.9100000  22.0820000  -3.9810000   9.6280000  21.3960000
  -4.3870000   9.0320000  24.3960000  -4.9669105   9.8598503  23.9865256
  -3.3360000   9.4970000  25.1850000  -3.2357372  10.4490626  24.9614637
  -5.1860000   8.2870000  25.3810000  -5.5973390   8.9735294  26.1156323
  -6.0439942   7.8510728  24.8680268  -4.6191306   7.4841120  25.8547956
  -1.9630000   8.8050000  21.8570000  -1.3941396   8.2524598  22.4856356
  -1.3470000   9.4180000  20.6850000  -1.9862774   9.2679278  19.8173140
  -1.2151194  10.4872791  20.8422614   0.0030000   8.7720000  20.4390000
   0.6950000   8.4360000  21.3630000   0.3190000   8.5950000  19.1660000
  -0.3869568   8.7482302  18.4531308   1.6240000   8.0340000  18.7640000
   2.3773754   8.2686865  19.5110041   2.0060000   8.6870000  17.4380000
   1.2990000   8.5110000  16.4440000   1.5570000   6.5170000  18.6240000
   0.7182936   6.2634557  17.9735295   1.3554263   6.0907300  19.6064549
   2.7940000   5.8560000  18.0840000   4.0690000   6.3240000  18.0910000
   4.4061435   7.2591977  18.5217766   2.8220000   4.5850000  17.4180000
   4.8830000   5.4170000  17.4610000   5.8456134   5.6174030  17.1826797
   4.1480000   4.3330000  17.0480000   1.8440000   3.6470000  17.0980000
   0.8147652   3.8684887  17.3223319   4.5180000   3.2050000  16.3750000
   5.5472990   3.0597581  16.0768649   2.2100000   2.4960000  16.4240000
   1.4615863   1.7703990  16.1397766   3.5600000   2.2890000  16.0760000
   3.8376020   1.3938486  15.5359872   3.1070000   9.4450000  17.4330000
   3.6543063   9.5356631  18.2860228   3.5810000  10.0720000  16.2140000
   3.0311197   9.6967856  15.3630063   5.0610000   9.7080000  16.0250000
   5.8850000   9.9920000  16.8990000   3.4100000  11.5880000  16.2690000
   3.9187054  11.9688784  17.1527957   3.8807030  12.0336233  15.3920052
   1.9520000  11.9950000  16.3040000   1.4395568  11.4565223  17.0995279
   1.4871156  11.7084342  15.3628849   1.7290000  13.4640000  16.5180000
   2.2397705  14.0065177  15.7186443   0.6646924  13.6826433  16.4225051
   2.2290000  13.9550000  17.7930000   3.0944899  14.5031465  17.7816087
   1.6040000  13.8080000  18.9630000   0.4390000  13.1520000  19.0470000
  -0.0430484  13.1173982  19.9225456   0.0408937  12.7966068  18.1950121
   2.1580000  14.3110000  20.0560000   1.7400771  14.2046321  20.9555173
   3.0355900  14.8352507  19.9363882   5.3940000   9.1150000  14.8760000
   4.6687050   8.9669287  14.1830904   6.7830000   8.7810000  14.5260000
   7.4466630   8.9118765  15.3818767   7.2500000   9.7040000  13.4190000
   6.5880000   9.8460000  12.3770000   6.8480000   7.3310000  14.0700000
   7.7065771   7.2210573  13.4057184   5.9579113   7.0905469  13.4845886
   7.0240000   6.3100000  15.1680000   7.3740000   6.6660000  16.3130000
   6.8210000   5.0910000  14.8870000   8.4090000  10.2870000  13.6230000
   8.8919208  10.1082058  14.4989124   9.0650000  11.2090000  12.7030000
   8.3730138  11.4888224  11.9081267  10.2900000  10.5520000  12.0740000
  11.1520000   9.9970000  12.7790000   9.4870000  12.4900000  13.4330000
  10.1168347  13.0677150  12.7559737  10.1116996  12.2268825  14.2866345
   8.3650000  13.3870000  13.9190000   7.5470000  13.0310000  14.9880000
   7.6932309  12.0829729  15.4885730   8.1630000  14.6240000  13.3030000
   8.7921882  14.9322321  12.4772859   6.5610000  13.9010000  15.4460000
   5.9360430  13.6306650  16.2844258   7.1730000  15.5050000  13.7820000
   7.0230730  16.4721976  13.3366340   6.4030000  15.1220000  14.8530000
   5.4330000  16.0290000  15.2760000   5.0583455  15.7665954  16.1510268
  10.3710000  10.6320000  10.7580000   9.6390686  11.0898724  10.2311653
  11.4360000  10.0220000   9.9750000  12.4051733  10.3302112  10.3686338
  11.3290000  10.5070000   8.5320000  10.3490000  11.1510000   8.1340000
  11.3480000   8.4730000  10.0290000  12.1673510   8.0419464   9.4541795
  11.4904460   8.1385261  11.0550453  10.0320000   7.9250000   9.5160000
   9.8720000   7.5990000   8.1890000  10.6927227   7.7383452   7.5036783
   8.9500000   7.7070000  10.3490000   9.0358233   7.9339348  11.4019713
   8.6840000   7.0850000   7.7080000   8.5984787   6.8243587   6.6642628
   7.7730000   7.2010000   9.8730000   6.9516608   7.0277400  10.5530665
   7.6660000   6.8790000   8.5420000   6.7520034   6.4433621   8.1668473
  12.3190000  10.1390000   7.7330000  13.0810255   9.5883686   8.0959686
  12.3620000  10.4490000   6.3210000  11.7512501  11.3274440   6.1171711
  11.7930000   9.2680000   5.5190000  12.3040000   8.1460000   5.5820000
  13.7870000  10.7580000   5.8770000  14.1991799  11.5070086   6.5371250
  14.3986790   9.8635892   5.9966959  13.8180000  11.2100000   4.4540000
  13.3250000  12.3170000   4.1900000  14.2600000  10.4600000   3.5490000
  10.7720000   9.4970000   4.6980000  10.3705661  10.4371826   4.6399234
  10.1400000   8.4170000   3.9660000  10.1388984   7.5299126   4.5988728
  10.9010000   8.0630000   2.6880000  10.9680000   6.8870000   2.3130000
   8.6920000   8.7920000   3.6460000   8.1981314   9.0489465   4.5788627
   8.6961217   9.6866866   3.0216341   7.8600000   7.7080000   2.9520000
   8.3382222   7.4567540   2.0087128   7.7410000   6.4420000   3.8050000
   7.2798884   6.6789526   4.7618175   7.1075592   5.7252174   3.2953694
   8.7236871   6.0035120   3.9678571   6.4810000   8.2340000   2.6300000
   5.9672585   7.5151073   1.9890067   5.9107188   8.3621116   3.5494084
   6.5377781   9.1877008   2.1111146  11.4270000   9.0460000   1.9610000
  11.4651214   9.9723097   2.3723834  11.9900000   8.7920000   0.6340000
  11.2466465   8.2760396   0.0236653  13.1770000   7.8560000   0.6880000
  13.2960000   6.9850000  -0.1880000  12.3720000  10.0880000  -0.0450000
  12.9760198  10.6658557   0.6580565  11.4646013  10.6533809  -0.2585447
  13.1510000   9.8890000  -1.3220000  12.5747232   9.2585692  -2.0015094
  14.0899087   9.3767794  -1.1074031  13.5250000  11.1450000  -2.0420000
  14.1762656  10.8801935  -2.8787840  12.6059778  11.5754044  -2.4403929
  14.1890000  12.0580000  -1.1790000  14.5605194  11.7081610  -0.3069106
  14.2410000  13.3280000  -1.4190000  13.7570000  13.8210000  -2.5790000
  13.8405766  14.8407330  -2.6957841  12.9651083  13.3649111  -2.9721690
  14.7620000  14.1320000  -0.5290000  14.9277608  15.1198322  -0.7567832
  15.0455403  13.7899893   0.3718649  14.1000000   8.0130000   1.6260000
  14.0388536   8.7656462   2.3155948  15.2620000   7.1450000   1.6220000
  15.7755019   7.2072019   0.6607057  14.8320000   5.6770000   1.8280000
  15.4090000   4.7650000   1.2680000  16.2530000   7.5600000   2.7380000
  15.6959710   7.4303816   3.6676402  17.0260229   6.7898955   2.7538275
  16.9810000   8.8640000   2.8650000  16.3220233   9.6992765   2.6543136
  17.7498001   8.8934983   2.0883488  17.6400000   9.0070000   4.2610000
  18.9200000   8.8600000   4.3310000  16.8310000   9.2100000   5.2270000
  13.8790000   5.4630000   2.6900000  13.4666657   6.2626401   3.1515314
  13.3060000   4.1380000   2.9310000  14.0957900   3.4596987   3.2543678
  12.7110000   3.5890000   1.6290000  13.0190000   2.4740000   1.2050000
  12.2680000   4.2850000   4.0270000  11.5873150   5.0892964   3.7675951
  12.7876220   4.5917460   4.9319420  11.4670000   3.1080000   4.3470000
  11.8700000   1.8050000   4.1540000  12.8163103   1.5946780   3.6787484
  10.2910000   3.3420000   5.0230000   9.9816482   4.3527460   5.2497517
  11.0810000   0.7660000   4.5030000  11.4018477  -0.2489090   4.3136466
   9.5000000   2.2990000   5.4000000   8.5710878   2.4856882   5.9206599
   9.8870000   1.0120000   5.1350000   9.2610221   0.1882736   5.4413057
  11.8500000   4.3660000   0.9870000  11.6199321   5.2795796   1.3642996
  11.2310000   3.9270000  -0.2620000  10.5947111   3.0588451  -0.0835562
  12.2480000   3.5380000  -1.3040000  12.0440000   2.5560000  -2.0320000
  10.3950000   5.0360000  -0.8560000  10.1390622   4.7363891  -1.8749860
  10.9964669   5.9431279  -0.9209161   9.1380000   5.3600000  -0.1590000
   9.3042922   5.6466286   0.8763010   8.6045842   4.4685976  -0.2565496
   8.2900000   6.3990000  -0.9180000   8.6540000   6.7810000  -1.9760000
   7.2430000   6.7850000  -0.4240000  13.2770000   4.3390000  -1.4480000
  13.3438137   5.1700569  -0.8672374  14.3310000   4.0950000  -2.4520000
  13.8635910   3.9106881  -3.4207041  15.1060000   2.8420000  -2.1170000
  15.4850000   2.0770000  -3.0170000  15.2800000   5.3210000  -2.5940000
  15.6414844   5.6103171  -1.6058292  16.1348472   5.0404867  -3.2111939
  14.5780000   6.4860000  -3.2440000  13.6867836   6.7436047  -2.6721140
  14.2327713   6.1562532  -4.2271849  15.4100000   7.7520000  -3.4310000
  16.4820000   7.8820000  -2.8290000  14.9440000   8.6210000  -4.1430000
  15.3530000   2.6000000  -0.8610000  15.0612398   3.2620466  -0.1489197
  16.1150000   1.4250000  -0.4830000  17.0235374   1.3861148  -1.0860412
  15.3620000   0.1090000  -0.7120000  15.9690000  -0.9300000  -1.0050000
  16.5100000   1.5130000   0.9610000  15.6199625   1.5852035   1.5878563
  17.0787396   0.6261546   1.2433286  17.1241522   2.4005603   1.1213115
  14.0520000   0.1140000  -0.5620000  13.5986309   0.9864831  -0.3076166
  13.2590000  -1.1130000  -0.6320000  13.9329239  -1.9600244  -0.6689310
  12.4180000  -1.2530000  -1.8890000  11.7230000  -2.2590000  -2.0570000
  12.3970000  -1.3360000   0.6200000  11.9896143  -2.3440687   0.5619691
  13.2660000  -1.2990000   1.8670000  14.1643461  -1.8977534   1.7163089
  13.5521006  -0.2716928   2.0924612  12.7109855  -1.7090730   2.7104572
  11.2300000  -0.3770000   0.7420000  10.7239341  -0.5264846   1.6947409
  10.5183902  -0.5629109  -0.0613060  11.5623474   0.6521166   0.6704604
  12.4530000  -0.2600000  -2.7680000  13.0302780   0.5539410  -2.5859714
  11.7910000  -0.3420000  -4.0820000  12.0026389   0.5917475  -4.6054662
  10.2990000  -0.4150000  -3.9640000   9.6340000  -1.1590000  -4.6830000
  12.3440000  -1.4990000  -4.9580000  12.3117489  -2.4510854  -4.4338019
  11.7381537  -1.5947458  -5.8600230  13.7530000  -1.2560000  -5.4320000
  14.3130000  -0.1220000  -5.3560000  14.3880000  -2.2160000  -5.9480000
   9.7250000   0.3810000  -3.0800000  10.3040878   1.0115255  -2.5348020
   8.2840000   0.4500000  -2.9790000   7.8077549   0.0572348  -3.8761963
   7.8360000   1.9120000  -2.7490000   8.2790000   2.4860000  -1.7270000
   7.9250000  -0.3770000  -1.8020000   8.3213140   0.1030602  -0.9050418
   8.4652120  -1.3220639  -1.9075592   6.4790000  -0.7290000  -1.5560000
   5.9109197   0.1629360  -1.2959660   5.8330000  -1.3950000  -2.7550000
   4.9148258  -1.9015643  -2.4542431   5.5604686  -0.6447197  -3.4905242
   6.5171575  -2.1162281  -3.2076782   6.4840000  -1.6600000  -0.4160000
   5.4579167  -1.9254217  -0.1636054   7.0319071  -2.5691202  -0.6632220
   6.9345901  -1.1946035   0.4601446   7.0170000   2.5050000  -3.6250000
   6.5940000   3.8780000  -3.4040000   7.4333568   4.5371760  -3.1748041
   5.5330000   3.9560000  -2.3590000   4.3560000   3.8370000  -2.6110000
   5.9490000   4.2640000  -4.7290000   5.2900766   5.1302915  -4.6435257
   6.7241871   4.4743195  -5.4689265   5.2150000   3.0520000  -5.1010000
   4.9697097   3.0762520  -6.1629263   4.3061982   2.8114980  -4.5674049
   6.3060000   1.9930000  -4.8320000   5.8452545   1.0251901  -4.6639104
   6.9993654   1.9399407  -5.6726455   5.9210000   4.4380000  -1.2190000
   6.8921997   4.6906785  -1.1180161   5.1390000   4.3700000  -0.0210000
   4.5356053   3.4656613  -0.0371606   4.1450000   5.4950000   0.2070000
   3.5410000   5.5240000   1.2800000   6.1380000   4.3250000   1.1180000
   5.5754111   4.2572777   2.0503344   6.6921463   5.2468951   1.1882378
   7.1290000   3.1390000   1.1020000   7.6305667   2.9573580   0.2238763
   8.1040000   3.1540000   2.2600000   8.5683274   2.1640534   2.3685977
   8.8911060   3.8853668   2.1117752   7.6104330   3.3421666   3.2110733
   6.3000000   1.9380000   1.1910000   6.9542949   1.0666609   1.1746836
   5.6209871   1.8355422   0.3488910   5.7361124   1.9256079   2.1251897
   4.0180000   6.4240000  -0.7220000   4.6029159   6.3347177  -1.5408474
   2.8520000   7.3650000  -0.7110000   2.4580102   7.4470573   0.3035179
   1.6640000   6.9250000  -1.5850000   0.6700000   7.6860000  -1.7940000
   3.2370000   8.7580000  -1.1950000   2.3876584   9.4336762  -1.0755126
   3.4923906   8.7038169  -2.2547721   4.3850000   9.3070000  -0.4290000
   5.2560061   8.6555974  -0.5016242   4.0986789   9.3830490   0.6209453
   4.7860000  10.7240000  -0.9330000   5.4920936  11.1609714  -0.2234847
   3.8940584  11.3538880  -0.9730576   5.4040000  10.6130000  -2.2330000
   5.5553193   9.6890849  -2.6041019   5.7370000  11.6490000  -2.9670000
   5.5720000  12.8520000  -2.4690000   5.9387459  13.6801345  -2.9635116
   4.8640773  13.0178345  -1.7571961   6.2800000  11.4530000  -4.1450000
   6.3312748  10.5357868  -4.5451307   6.5557731  12.2829692  -4.6601550
   1.7590000   5.7130000  -2.1270000   2.5937357   5.1537001  -2.0005499
   0.7200000   5.1450000  -2.9810000   0.0921179   5.9306574  -3.3983989
   0.0923830   4.4837534  -2.3891119   1.2130000   4.3240000  -4.1660000
   0.9450000   4.6760000  -5.3380000   1.8630000   3.2750000  -3.9520000
  15.6790000  23.0490000  12.0760000  15.3730000  23.6280000  11.0170000
  14.3000000  24.2850000  10.9240000  16.3090000  23.5420000   9.9080000
  15.8190000  22.4140000   9.0490000  16.6380000  22.5430000   7.7890000
  16.7500000  21.2040000   7.1340000  17.0160000  21.2300000   5.6440000
  18.0950000  20.2900000   5.1710000  16.5586088  22.5164936  12.1362100
  15.0525206  23.1025458  12.8918164  16.3158266  24.4828823   9.3381808
  17.3374568  23.3686160  10.2575921  15.9979463  21.4438776   9.5356629
  14.7362658  22.4606362   8.8605544  16.1471721  23.2482415   7.1021795
  17.6420865  22.9165720   8.0385082  17.5742652  20.6581836   7.6163602
  15.7686095  20.7229148   7.2582162  16.0822347  20.9650756   5.1264118
  17.3714331  22.2452220   5.4138010  18.6029053  19.8475246   6.0406251
  17.6448329  19.4910069   4.5635795  18.8247628  20.8454158   4.5635795
   7.3150000   2.2160000  13.1440000   7.6580000   1.6120000  12.0800000
   8.7470000   0.9870000  12.0560000   6.7230000   1.6450000  10.9440000
   7.2720000   2.6250000   9.9510000   6.3360000   2.4050000   8.7700000
   6.1150000   3.6420000   7.9630000   5.7110000   3.3420000   6.5380000
   4.3150000   3.8430000   6.2120000   6.4246901   2.7327655  13.1786654
   7.9272719   2.1888407  13.9718197   6.6480667   0.6469581  10.4876040
   5.7165271   1.9427069  11.2732157   7.2109452   3.6569378  10.3270009
   8.3369350   2.4811105   9.7160334   6.7704044   1.6334713   8.1172855
   5.3607305   2.0977978   9.1755566   5.3189829   4.2346268   8.4375000
   7.0665443   4.1929141   7.9304871   6.4274788   3.8268559   5.8586085
   5.7116805   2.2490973   6.4132471   3.7683846   4.0391707   7.1461995
   4.3860874   4.7717207   5.6268296   3.7793218   3.0810128   5.6268296
 -18.7890474  -7.8544602  -5.7219314 -18.8890474  -7.1054602  -5.1349314
 -18.2440474  -8.4714602  -5.2339314  -3.5080474  -4.5254602 -16.0209314
  -3.6030474  -5.4034602 -15.6509314  -4.2730474  -4.4204602 -16.5859314
  -1.6220474 -16.2664602  10.4480686  -2.3690474 -16.5754602  10.9610686
  -1.9900474 -15.6034602   9.8640686 -15.9460474   5.7445398 -15.3499314
 -16.6510474   5.1875398 -15.0199314 -15.9210474   6.4835398 -14.7419314
  -1.7850474 -20.3804602   2.2520686  -1.9450474 -21.2294602   1.8400686
  -1.2750474 -19.8914602   1.6060686 -16.1990474  -2.8194602   1.9870686
 -16.5260474  -2.1644602   2.6050686 -15.2570474  -2.6564602   1.9420686
 -11.0250474  -9.5614602  -7.4019314 -11.6200474 -10.2844602  -7.2029314
 -10.1530474  -9.9534602  -7.3739314 -17.0310474 -14.5604602 -10.7819314
 -17.4960474 -15.3574602 -11.0349314 -17.0070474 -14.0334602 -11.5809314
  -7.8050474  -3.7014602  -3.8779314  -8.6160474  -3.8834602  -4.3529314
  -7.1200474  -3.7574602  -4.5449314 -22.2740474  -7.4564602 -10.9469314
 -23.0970474  -7.1364602 -11.3189314 -22.0010474  -8.1574602 -11.5379314
  -4.0540474  -2.9164602 -10.1989314  -4.4410474  -3.3574602  -9.4419314
  -4.7610474  -2.3734602 -10.5469314 -13.8460474 -12.8474602  -1.6569314
 -14.4520474 -13.2804602  -1.0549314 -13.5160474 -13.5534602  -2.2129314
 -11.6840474 -10.1814602 -13.7789314 -12.2680474  -9.7314602 -13.1689314
 -11.2310474 -10.8324602 -13.2429314  -5.4430474  -6.3024602  -1.5749314
  -4.9620474  -6.3854602  -0.7509314  -4.7780474  -6.4214602  -2.2529314
  -0.8300474 -12.0254602 -13.1469314  -0.9190474 -11.7914602 -14.0709314
  -0.1710474 -11.4184602 -12.8089314 -17.2950474  -7.8434602 -10.5329314
 -17.1450474  -7.8124602  -9.5879314 -18.1560474  -7.4434602 -10.6529314
 -20.3770474 -14.3664602   9.3640686 -19.6360474 -13.9544602   9.8100686
 -20.0470474 -14.5694602   8.4890686  -9.9790474   4.0225398  -5.2849314
  -9.0460474   3.8305398  -5.3739314 -10.3860474   3.5915398  -6.0359314
   5.1269526 -15.9664602 -13.9339314   4.1869526 -15.8464602 -14.0699314
   5.3059526 -16.8504602 -14.2529314  -4.5470474  -0.1704602 -18.8019314
  -5.2010474   0.5195398 -18.9159314  -4.6310474  -0.7124602 -19.5859314
 -12.2250474  -5.5454602 -12.8179314 -11.7760474  -4.7044602 -12.7339314
 -13.0330474  -5.4364602 -12.3159314  -4.4780474 -16.6724602   5.5630686
  -4.7950474 -17.0154602   6.3980686  -4.5380474 -17.4134602   4.9600686
   5.8899526 -11.5904602  -3.7099314   4.9509526 -11.5294602  -3.8839314
   5.9469526 -11.9334602  -2.8179314 -20.5210474  -0.7594602 -15.6369314
 -19.7280474  -0.2234602 -15.6359314 -20.2370474  -1.6094602 -15.3009314
  -4.9320474  -7.0734602  -8.8179314  -5.6580474  -7.1654602  -9.4349314
  -5.2060474  -7.5734602  -8.0489314  -9.3800474  -6.8514602 -18.9479314
 -10.0090474  -7.5524602 -18.7769314  -9.8320474  -6.2664602 -19.5559314
  -5.9770474   0.4985398  -6.1159314  -5.6320474   1.3745398  -6.2849314
  -5.2470474  -0.0894602  -6.3099314 -18.4780474   7.2565398   6.7510686
 -18.0120474   6.5795398   6.2600686 -19.1260474   7.5975398   6.1340686
 -11.1500474   1.5885398 -10.9399314 -11.2200474   2.3525398 -11.5109314
 -10.8340474   0.8885398 -11.5119314  -8.3790474   4.5195398 -17.5919314
  -7.7550474   4.5135398 -18.3179314  -7.9380474   4.0345398 -16.8939314
 -21.3210474 -13.6614602 -14.3449314 -20.9970474 -14.4494602 -14.7799314
 -20.5350474 -13.2354602 -14.0019314 -18.5320474 -19.8344602  -2.8449314
 -19.4630474 -19.6974602  -3.0189314 -18.1420474 -19.9584602  -3.7099314
 -11.8910474 -19.3484602  -1.3369314 -12.1530474 -18.4274602  -1.3439314
 -11.2180474 -19.4014602  -0.6589314  -7.7550474 -20.8494602 -10.6109314
  -8.1450474 -20.1014602 -11.0629314  -7.8200474 -21.5694602 -11.2379314
  -7.4910474  -7.4944602  -6.3879314  -8.1000474  -7.5484602  -5.6509314
  -8.0420474  -7.2734602  -7.1389314 -16.0350474   5.3965398  -9.7249314
 -15.8180474   6.2795398  -9.4269314 -15.8930474   5.4205398 -10.6709314
   5.6249526  -5.9584602 -11.8399314   5.5389526  -5.3804602 -12.5979314
   5.2779526  -5.4484602 -11.1079314 -14.5560474 -15.1454602 -15.9809314
 -13.8920474 -14.6234602 -16.4309314 -14.9220474 -14.5524602 -15.3239314
   1.4749526 -12.1184602  -2.1179314   1.8109526 -13.0114602  -2.1879314
   1.3809526 -11.9704602  -1.1769314 -15.1160474  -7.7594602 -12.3909314
 -15.7510474  -8.0204602 -11.7239314 -14.5450474  -8.5214602 -12.4899314
 -13.8240474 -18.7224602  -7.1819314 -13.6440474 -18.2664602  -8.0039314
 -13.1370474 -18.4234602  -6.5849314  -7.0590474  -7.5364602 -10.4719314
  -7.7450474  -6.9634602 -10.8139314  -7.5080474  -8.3584602 -10.2749314
 -15.2610474  -4.2284602  -6.9809314 -15.7770474  -3.6354602  -6.4339314
 -15.2960474  -5.0684602  -6.5229314  -0.4550474 -17.9244602 -16.8189314
  -1.2280474 -17.9544602 -17.3829314  -0.1120474 -17.0374602 -16.9299314
  -1.6810474  -1.0284602  -4.5359314  -2.0340474  -0.4914602  -3.8259314
  -0.9620474  -0.5084602  -4.8959314 -15.7020474 -13.3264602  10.3690686
 -15.5500474 -12.7874602  11.1450686 -14.8450474 -13.3884602   9.9480686
 -12.5000474   4.3545398   7.3120686 -12.5080474   4.7535398   6.4420686
 -13.2940474   4.6835398   7.7340686 -11.7180474   4.7675398 -17.9249314
 -11.6590474   5.7175398 -17.8229314 -11.2710474   4.4155398 -17.1559314
 -18.2230474 -17.9184602  -7.1359314 -19.0760474 -17.5794602  -7.4099314
 -17.6790474 -17.1384602  -7.0289314  -9.7630474  -9.2104602   7.5750686
  -9.3360474  -9.4824602   6.7620686  -9.0480474  -9.1254602   8.2050686
 -11.5440474  -0.7124602  -6.5029314 -11.5650474   0.0565398  -7.0739314
 -10.6230474  -0.9714602  -6.4839314  -7.3390474 -17.0274602   3.7250686
  -6.7870474 -16.3864602   3.2770686  -7.6430474 -17.6104602   3.0300686
  -8.3770474  -2.0034602 -11.6759314  -8.8890474  -2.5684602 -11.0979314
  -9.0030474  -1.3494602 -11.9879314 -17.9930474  -7.4494602 -13.4289314
 -17.6670474  -8.2484602 -13.0139314 -18.5140474  -7.0214602 -12.7499314
 -10.9680474 -16.5984602  -1.0519314 -10.0990474 -16.2124602  -1.1589314
 -11.1440474 -16.5374602  -0.1129314 -19.9100474   2.1915398 -14.4899314
 -20.3500474   1.6015398 -13.8779314 -19.1190474   1.7205398 -14.7519314
 -13.5190474 -15.5314602  -5.9229314 -14.4420474 -15.7084602  -5.7419314
 -13.3650474 -15.9194602  -6.7839314 -16.4510474  -2.4824602  -5.2719314
 -17.1130474  -2.5734602  -4.5869314 -15.8200474  -1.8584602  -4.9139314
 -10.1830474 -16.7874602  -6.4479314  -9.3540474 -17.2534602  -6.5599314
 -10.5400474 -17.1284602  -5.6269314 -11.9910474  -6.0144602  -7.5819314
 -12.8390474  -6.4214602  -7.7579314 -12.1810474  -5.0774602  -7.5269314
 -11.6320474 -12.8774602 -10.1329314 -11.5690474 -13.5864602  -9.4919314
 -12.2370474 -12.2504602  -9.7389314 -15.5330474   7.2825398 -17.8029314
 -16.2290474   6.7575398 -18.1979314 -15.6230474   7.1305398 -16.8619314
  -7.2200474  -2.9224602 -14.9339314  -7.0430474  -2.9264602 -15.8739314
  -6.6620474  -3.6164602 -14.5819314 -16.9030474 -20.6494602 -15.0199314
 -16.0540474 -21.0584602 -15.1889314 -16.7490474 -19.7144602 -15.1519314
 -13.4980474 -12.8084602 -12.9189314 -13.0090474 -13.0744602 -12.1399314
 -12.8910474 -12.2474602 -13.4019314 -13.8370474 -11.4484602  -9.5039314
 -13.6010474 -11.2084602  -8.6079314 -14.7700474 -11.6594602  -9.4579314
 -14.2470474   1.5555398 -13.7559314 -13.7460474   1.1735398 -13.0349314
 -13.6050474   1.6805398 -14.4549314 -10.7190474 -18.5024602 -12.8339314
 -10.3270474 -18.0224602 -12.1039314 -10.0840474 -19.1894602 -13.0389314
 -20.1460474 -11.2084602  -3.5439314 -20.7120474 -10.7364602  -4.1549314
 -20.7520474 -11.6614602  -2.9569314 -19.1170474 -15.6004602  -0.9369314
 -18.3740474 -16.1354602  -1.2149314 -19.8680474 -15.9754602  -1.3979314
 -15.6450474 -16.0424602  -8.7129314 -16.2600474 -15.4644602  -9.1649314
 -15.2690474 -16.5834602  -9.4069314 -18.4200474 -17.2144602 -10.8719314
 -19.0910474 -17.8524602 -10.6319314 -18.1580474 -17.4624602 -11.7579314
  -4.7040474 -10.3324602  -8.3909314  -4.1200474 -10.3714602  -9.1479314
  -5.5810474 -10.4354602  -8.7579314 -10.2940474 -18.7874602 -16.8369314
 -10.6620474 -18.4174602 -17.6389314  -9.6350474 -18.1504602 -16.5589314
 -18.9140474 -11.4974602  -0.2469314 -18.2040474 -12.0404602  -0.5909314
 -18.7740474 -10.6384602  -0.6459314  -9.3050474 -11.8364602 -16.3149314
  -8.8280474 -12.5834602 -15.9549314  -8.6890474 -11.1054602 -16.2519314
 -12.2290474 -10.2444602 -19.0079314 -11.9470474  -9.5644602 -19.6199314
 -12.3160474  -9.7904602 -18.1689314 -16.7120474   7.2565398 -12.0909314
 -17.2870474   7.7925398 -11.5459314 -15.9710474   7.8275398 -12.2939314
  -7.2710474 -14.9174602 -10.4959314  -7.2900474 -14.9174602  -9.5389314
  -6.3690474 -14.6834602 -10.7169314  -6.7470474  -1.2014602  -9.6419314
  -7.0130474  -1.4254602 -10.5329314  -7.1150474  -1.8984602  -9.0989314
  -4.0730474  -1.8404602  -5.7939314  -3.2570474  -1.7214602  -5.3089314
  -3.8670474  -1.5584602  -6.6849314 -15.5530474  -6.5814602  -5.3769314
 -16.1690474  -6.8684602  -4.7029314 -15.1980474  -7.3944602  -5.7379314
  -0.7510474  -9.5484602 -10.7889314  -0.7070474  -8.5974602 -10.8809314
  -0.0920474  -9.8804602 -11.3989314 -21.3340474 -19.6924602  -7.1039314
 -21.2400474 -20.1314602  -7.9489314 -21.1290474 -18.7754602  -7.2849314
 -13.1120474  -7.9664602   1.2190686 -12.9980474  -8.9164602   1.2070686
 -12.6850474  -7.6634602   0.4170686 -17.0320474 -10.3954602   8.8700686
 -16.2250474 -10.3204602   9.3780686 -17.7140474 -10.5534602   9.5230686
 -10.2790474  -8.3834602  -5.1489314 -10.6470474  -8.1914602  -6.0119314
  -9.9280474  -9.2704602  -5.2299314 -12.7670474 -12.9854602 -16.5369314
 -12.1100474 -12.9244602 -17.2299314 -12.3160474 -12.6764602 -15.7509314
 -18.2030474  -6.1094602   3.6450686 -18.3460474  -5.6294602   2.8290686
 -17.9390474  -5.4384602   4.2740686 -19.9950474  -5.0744602  -5.1199314
 -19.3820474  -4.4244602  -4.7779314 -20.6650474  -5.1544602  -4.4409314
 -12.9370474 -19.9084602 -10.3169314 -12.0240474 -19.7454602 -10.5539314
 -12.8940474 -20.2744602  -9.4339314 -10.3940474 -12.1374602 -12.4389314
  -9.9860474 -12.5734602 -13.1879314 -10.2920474 -12.7564602 -11.7159314
  -2.2280474  -6.9744602  -8.6249314  -2.4400474  -6.5574602  -7.7899314
  -3.0790474  -7.1734602  -9.0159314  -4.6590474 -10.7164602   8.1140686
  -4.9700474 -10.6564602   7.2110686  -3.7110474 -10.6024602   8.0500686
 -17.8440474  -9.3314602  -1.3379314 -17.0780474  -9.8134602  -1.6499314
 -18.2210474  -8.9434602  -2.1279314 -18.4400474 -14.5384602   1.6120686
 -18.5340474 -14.8124602   0.6990686 -18.4500474 -13.5824602   1.5780686
  -6.1110474 -12.6924602   2.4300686  -6.7840474 -13.2664602   2.0640686
  -5.5260474 -13.2814602   2.9060686  -5.5760474 -20.2144602  -2.1109314
  -5.7640474 -19.3644602  -1.7129314  -6.3180474 -20.7654602  -1.8629314
 -18.5530474   3.1195398  -6.3499314 -17.7280474   3.5515398  -6.5729314
 -19.0360474   3.7705398  -5.8419314 -16.8240474  -6.6714602  -8.0399314
 -17.4430474  -6.1524602  -8.5529314 -16.9140474  -6.3374602  -7.1469314
  -9.4690474  -5.3564602 -10.9789314  -9.5310474  -5.5884602 -11.9049314
 -10.1300474  -4.6754602 -10.8569314 -14.4080474 -17.3914602 -10.8709314
 -14.0470474 -17.0754602 -11.6989314 -13.9290474 -18.2014602 -10.6939314
 -13.6880474   8.4285398   0.0710686 -13.7890474   7.7895398  -0.6339314
 -13.1370474   9.1155398  -0.3049314 -17.0120474   4.6435398  -3.6989314
 -17.9330474   4.8715398  -3.8239314 -16.6540474   4.5975398  -4.5849314
 -18.7380474 -13.4894602 -12.9249314 -19.3100474 -13.1984602 -12.2149314
 -18.5870474 -12.7034602 -13.4499314  -1.9790474 -13.4074602  -1.6299314
  -2.4200474 -13.0894602  -0.8419314  -1.6140474 -12.6204602  -2.0349314
 -19.3630474   7.6655398  -5.0949314 -19.4570474   7.2015398  -5.9269314
 -18.8320474   8.4335398  -5.3069314 -15.2640474  -5.9404602 -18.9219314
 -14.7720474  -6.6234602 -18.4669314 -14.7600474  -5.1404602 -18.7719314
 -13.1380474 -18.6454602 -13.8419314 -12.2890474 -18.7944602 -13.4239314
 -13.1100474 -19.1744602 -14.6389314 -13.8840474  -5.1304602  -3.8729314
 -14.1810474  -5.5194602  -3.0509314 -14.5070474  -5.4484602  -4.5269314
  -9.9180474 -15.4504602   1.4220686  -9.6430474 -14.5364602   1.3510686
  -9.4550474 -15.7804602   2.1920686  -8.9180474 -11.5104602   9.6130686
  -8.1910474 -12.0704602   9.8850686  -8.5560474 -10.9754602   8.9060686
  -7.9030474 -14.4124602   8.5650686  -7.6780474 -14.4874602   9.4920686
  -8.7600474 -14.8324602   8.4910686  -3.1340474  -4.5084602 -12.6899314
  -3.2840474  -3.7334602 -13.2299314  -3.7800474  -4.4404602 -11.9869314
   2.0169526  -6.2094602  -9.8959314   2.4059526  -6.9424602  -9.4179314
   2.4179526  -6.2484602 -10.7639314   6.1609526 -19.1614602  -5.9029314
   6.2799526 -18.8064602  -5.0219314   7.0499526 -19.3024602  -6.2279314
  -7.5630474 -13.6674602  -5.9129314  -7.4040474 -14.3874602  -6.5229314
  -6.6900474 -13.4014602  -5.6239314  -8.9680474   6.2175398  -8.2779314
  -9.2980474   6.1075398  -7.3859314  -9.6970474   6.6135398  -8.7559314
 -21.7100474  -3.7174602   9.9660686 -21.0050474  -3.4314602  10.5460686
 -21.2630474  -4.1594602   9.2450686 -20.4340474  -8.0964602  -7.9659314
 -19.9430474  -8.2114602  -7.1519314 -20.5170474  -7.1474602  -8.0629314
 -18.8290474 -10.5574602  -9.2919314 -19.5520474  -9.9464602  -9.1549314
 -18.2230474 -10.3774602  -8.5719314 -20.4400474 -19.2604602  -9.9969314
 -20.9890474 -18.5224602 -10.2639314 -21.0280474 -20.0154602 -10.0159314
 -19.8900474  -5.4394602  -7.8869314 -19.9350474  -5.3694602  -6.9329314
 -19.8010474  -4.5354602  -8.1899314 -10.3360474  -7.3384602  -2.7419314
 -10.2220474  -7.7844602  -3.5819314  -9.5170474  -6.8604602  -2.6109314
  -7.1990474  -9.4664602   8.5420686  -6.3620474  -9.9264602   8.6150686
  -6.9970474  -8.5624602   8.7840686 -13.4150474  -5.5984602 -15.6089314
 -13.1440474  -5.7304602 -14.6999314 -13.0040474  -4.7724602 -15.8639314
 -14.8650474  -3.2454602  -2.2129314 -15.0970474  -3.9524602  -1.6109314
 -14.6680474  -3.6884602  -3.0379314 -14.8900474 -20.4784602  -5.4199314
 -14.7230474 -19.7254602  -5.9869314 -14.3250474 -20.3354602  -4.6589314
 -10.5800474   1.9095398 -15.4509314 -11.3390474   1.3935398 -15.7219314
  -9.8350474   1.4765398 -15.8669314 -19.0540474   6.7375398 -13.3729314
 -19.3770474   7.5925398 -13.6579314 -18.1700474   6.9095398 -13.0509314
 -20.7870474   0.6015398  -1.6229314 -20.0680474   0.2795398  -2.1649314
 -20.6030474   1.5335398  -1.5079314  -3.9190474 -13.1824602 -13.5139314
  -3.0010474 -13.1514602 -13.2429314  -4.0650474 -14.0944602 -13.7629314
 -17.1070474  -5.4514602 -15.1709314 -16.3150474  -5.8874602 -15.4849314
 -17.2920474  -5.8684602 -14.3289314  -7.2750474  -9.8784602 -15.7599314
  -6.4550474 -10.3554602 -15.6369314  -7.4460474  -9.4704602 -14.9099314
  -9.2890474  -6.4714602  -8.2269314 -10.0740474  -6.1594602  -7.7769314
  -9.4090474  -6.1984602  -9.1359314 -16.1750474 -11.1204602  -2.5709314
 -15.2390474 -11.3174602  -2.6089314 -16.5790474 -11.9314602  -2.2619314
 -13.8080474  -1.7994602   2.6170686 -13.0430474  -2.1334602   2.1470686
 -13.5630474  -0.9094602   2.8720686 -14.0220474  -1.1134602 -17.8839314
 -14.6270474  -1.7514602 -17.5059314 -14.1380474  -0.3274602 -17.3499314
  -9.4660474 -20.9654602 -14.3579314  -8.6490474 -20.9864602 -13.8609314
  -9.1920474 -21.0194602 -15.2739314 -14.7790474  -4.2074602  -9.7989314
 -14.7980474  -3.2894602 -10.0719314 -14.9130474  -4.1784602  -8.8519314
 -11.0490474 -12.6584602 -18.6649314 -11.4370474 -11.8274602 -18.9369314
 -10.1050474 -12.5034602 -18.6909314  -8.8550474  -0.8234602   0.3820686
  -9.7280474  -1.0094602   0.7260686  -8.7960474  -1.3484602  -0.4169314
 -14.1280474  -6.7024602  -8.9709314 -15.0110474  -6.8574602  -8.6339314
 -14.1800474  -5.8434602  -9.3909314  -8.1780474 -16.4994602 -12.7469314
  -7.6220474 -17.2754602 -12.8159314  -7.6420474 -15.8604602 -12.2769314
  -8.1080474  -6.0364602  -2.6219314  -7.9970474  -5.2284602  -3.1229314
  -7.2370474  -6.2234602  -2.2719314 -15.1820474  -8.2774602   7.2850686
 -15.4100474  -8.7944602   8.0580686 -14.4840474  -7.6944602   7.5820686
   4.5429526  -9.0484602  -6.8319314   4.0579526  -9.8684602  -6.7449314
   5.4059526  -9.3124602  -7.1509314  -3.1060474 -10.5764602 -10.6639314
  -2.2030474 -10.2674602 -10.7419314  -3.6210474  -9.9404602 -11.1609314
  -9.2340474  -9.4894602 -11.1719314  -9.9520474  -9.0824602 -10.6859314
  -9.5190474 -10.3924602 -11.3089314 -18.4780474 -21.5594602 -10.3309314
 -17.9560474 -21.2004602  -9.6139314 -19.2020474 -20.9414602 -10.4339314
 -19.7120474  -6.2424602 -11.4879314 -20.3100474  -6.1154602 -12.2239314
 -20.1840474  -6.8224602 -10.8919314  -9.4180474 -11.2814602  -4.0619314
  -8.7920474 -10.5674602  -3.9419314  -8.8990474 -11.9944602  -4.4369314
   5.8919526 -14.7774602  -4.3659314   5.6849526 -15.1894602  -5.2039314
   5.0679526 -14.3784602  -4.0849314 -16.5590474  -8.9994602   1.3190686
 -17.1460474  -8.8934602   0.5700686 -16.1020474  -8.1614602   1.3860686
 -20.7160474 -19.0964602  -4.4629314 -20.9240474 -19.5144602  -5.2989314
 -20.1510474 -18.3594602  -4.6979314  -2.5560474 -20.3374602  -5.0889314
  -1.6650474 -20.4644602  -5.4149314  -2.5820474 -19.4204602  -4.8139314
  -9.9570474  -3.3384602 -14.7719314 -10.0840474  -3.0514602 -13.8679314
  -9.0240474  -3.2024602 -14.9379314 -11.7020474  -8.2984602  -9.8519314
 -11.4170474  -8.3434602  -8.9399314 -12.4410474  -7.6904602  -9.8429314
 -17.6210474  -4.9324602 -18.2389314 -16.7120474  -5.1284602 -18.0099314
 -17.8150474  -5.5184602 -18.9699314 -16.9490474 -20.2334602  -8.6439314
 -16.2010474 -19.6384602  -8.5999314 -17.7080474 -19.6794602  -8.4599314
  -8.8730474 -12.2274602  -9.4509314  -9.8240474 -12.3014602  -9.5329314
  -8.5330474 -13.0104602  -9.8849314  -9.0690474  -5.5364602   0.4320686
  -9.5270474  -5.9234602  -0.3139314  -8.7570474  -4.6904602   0.1080686
  -4.9840474  -7.6344602  -5.3429314  -5.9370474  -7.6144602  -5.2629314
  -4.6650474  -7.3854602  -4.4749314  -4.9460474 -16.7514602 -19.1489314
  -5.8580474 -16.4834602 -19.0329314  -4.7120474 -17.1704602 -18.3199314
 -16.8280474  -9.7734602 -16.3569314 -17.6480474  -9.2804602 -16.3939314
 -16.1900474  -9.1514602 -16.0079314  -2.1250474  -9.5694602  -1.8819314
  -1.5790474 -10.2824602  -2.2129314  -1.9990474  -8.8584602  -2.5109314
  -6.8140474 -10.7824602  -9.9009314  -7.6030474 -11.1714602  -9.5239314
  -6.5770474 -11.3674602 -10.6199314 -11.0300474  -9.5884602 -16.3429314
 -11.3140474  -9.5664602 -15.4299314 -10.6260474 -10.4494602 -16.4489314
 -12.3070474  -3.3524602  -7.1649314 -13.2390474  -3.5154602  -7.0219314
 -12.2260474  -2.3984602  -7.1599314  -6.1080474  -0.9624602  -3.5139314
  -5.3690474  -1.5564602  -3.6449314  -6.1900474  -0.4934602  -4.3449314
 -16.5280474 -17.6514602 -13.2049314 -16.0860474 -17.3684602 -12.4049314
 -16.1330474 -17.1214602 -13.8979314  -5.0880474 -10.8584602   5.2310686
  -5.8590474 -11.3214602   4.9030686  -4.3510474 -11.2744602   4.7850686
  -1.9170474  -4.7124602 -17.9969314  -1.5600474  -3.8384602 -18.1559314
  -2.5050474  -4.5994602 -17.2509314   5.5719526 -10.5944602  -9.8419314
   5.9859526 -10.3544602  -9.0129314   5.9919526 -10.0314602 -10.4919314
  -8.0110474   5.0395398 -10.6159314  -8.0740474   5.2955398  -9.6949314
  -8.0630474   4.0835398 -10.6029314 -16.4780474 -12.2884602  -9.8149314
 -17.2560474 -11.7334602  -9.8719314 -16.7170474 -13.0864602 -10.2869314
  -4.9360474 -11.3334602 -15.1429314  -4.3460474 -10.5894602 -15.0179314
  -4.6840474 -11.9564602 -14.4619314  -8.3460474 -10.1974602  -6.9779314
  -7.5970474  -9.6074602  -7.0669314  -8.0680474 -11.0044602  -7.4119314
 -17.0150474  -2.1804602  -8.9859314 -17.6780474  -1.9354602  -8.3409314
 -17.4870474  -2.7164602  -9.6229314 -12.3770474 -16.6924602  -8.3979314
 -12.4630474 -16.0214602  -9.0759314 -11.5300474 -16.5144602  -7.9899314
 -14.5370474   1.9345398  -6.2969314 -13.7460474   2.4045398  -6.5609314
 -15.2560474   2.4685398  -6.6339314 -14.9080474  -7.7284602 -15.1959314
 -14.2260474  -7.1144602 -15.4669314 -14.9840474  -7.6014602 -14.2499314
 -14.3180474  -1.5214602  -7.8259314 -15.2180474  -1.8464602  -7.8609314
 -14.4090474  -0.5744602  -7.7179314 -18.8720474   5.7265398  -9.5299314
 -17.9370474   5.5185398  -9.5279314 -18.9100474   6.6575398  -9.7479314
  -5.0530474 -15.7324602 -13.1629314  -4.1360474 -15.9174602 -13.3649314
  -5.5420474 -16.1224602 -13.8869314   1.9109526 -14.0994602 -10.8729314
   2.0209526 -14.7984602 -11.5179314   2.5889526 -13.4614602 -11.0929314
 -13.2600474  -9.6874602 -11.6069314 -12.5060474  -9.2514602 -11.2099314
 -13.6320474 -10.2154602 -10.9009314  -5.0690474 -10.1964602   1.5900686
  -5.3320474 -11.0324602   1.9740686  -5.8860474  -9.7064602   1.4970686
  -6.5030474 -17.9004602  -0.4349314  -5.8000474 -17.2504602  -0.4379314
  -6.7130474 -18.0224602   0.4910686 -11.2650474 -13.4024602   4.1240686
 -10.9900474 -14.0354602   4.7880686 -10.9790474 -12.5564602   4.4680686
  -4.5710474 -12.8934602  -2.4669314  -4.7150474 -12.0784602  -1.9859314
  -3.6550474 -13.1134602  -2.2979314 -15.0860474 -11.8244602 -17.5809314
 -14.2110474 -12.1344602 -17.3489314 -15.5400474 -11.7354602 -16.7429314
 -15.4430474 -11.9754602   7.0060686 -15.8310474 -11.3784602   7.6460686
 -15.0410474 -11.4014602   6.3550686  -9.4220474 -13.1694602  -1.7009314
 -10.3380474 -13.0564602  -1.4449314  -9.1920474 -12.3494602  -2.1379314
   4.2229526  -8.0394602 -12.9069314   3.3029526  -7.8054602 -13.0289314
   4.6209526  -7.2554602 -12.5289314 -17.5180474 -11.6924602   2.0610686
 -18.4220474 -11.4454602   2.2550686 -17.0280474 -10.8724602   2.1160686
  -7.2110474  -7.8834602   2.0260686  -7.9810474  -7.3174602   1.9700686
  -7.1650474  -8.1354602   2.9480686 -17.5340474 -15.6784602 -14.9429314
 -16.9720474 -14.9364602 -15.1659314 -17.7830474 -15.5254602 -14.0309314
  -1.4100474  -0.6384602   2.1800686  -1.3800474   0.3155398   2.1060686
  -1.6930474  -0.9364602   1.3160686  -6.7110474  -8.7454602   4.8440686
  -5.9580474  -9.1484602   5.2760686  -7.4020474  -9.4064602   4.9000686
   0.6769526 -10.2534602 -16.1419314  -0.2150474  -9.9074602 -16.1599314
   1.2019526  -9.5854602 -16.5829314 -15.0300474   4.4985398   4.2280686
 -14.3810474   4.7005398   3.5540686 -15.8370474   4.3315398   3.7410686
  -7.9340474  -6.3644602   4.4720686  -7.2790474  -5.8104602   4.0470686
  -7.4230474  -7.0314602   4.9300686  -2.7830474  -4.1154602  -2.2259314
  -2.0530474  -3.5124602  -2.3649314  -2.6450474  -4.4604602  -1.3439314
  -5.1870474 -12.5144602  -4.9519314  -4.7020474 -11.6894602  -4.9499314
  -5.1470474 -12.8184602  -4.0449314  -5.8510474 -17.2384602 -15.7889314
  -5.5870474 -18.1014602 -15.4699314  -6.5770474 -17.4164602 -16.3879314
 -10.7670474  -8.4794602   3.9980686 -10.1140474  -8.3724602   3.3060686
 -11.0820474  -7.5924602   4.1700686 -13.6100474 -16.7804602  -2.8039314
 -14.4320474 -16.7634602  -3.2939314 -13.8790474 -16.8194602  -1.8859314
 -12.6250474 -11.6424602  -6.8849314 -12.0690474 -12.4144602  -6.9929314
 -12.7270474 -11.5514602  -5.9369314 -11.3900474 -10.8744602   5.1500686
 -11.1350474 -10.0414602   4.7520686 -12.1560474 -11.1544602   4.6490686
   5.9209526 -14.2574602 -17.1949314   5.9599526 -14.5514602 -16.2849314
   6.6299526 -14.7324602 -17.6299314 -10.0780474 -15.4334602   6.3730686
 -10.6880474 -14.7294602   6.5910686 -10.6200474 -16.0974602   5.9470686
  -0.8360474 -12.1424602  10.0010686   0.0499526 -12.5024602   9.9480686
  -1.4100474 -12.8974602   9.8760686  -5.0730474 -15.7284602  -1.1309314
  -4.1700474 -15.9094602  -1.3939314  -5.1240474 -14.7734602  -1.0879314
  -7.0140474  -2.1224602   5.3830686  -7.3220474  -2.6914602   6.0880686
  -6.0600474  -2.1394602   5.4600686 -10.6000474  -3.6914602  -1.0079314
 -11.3100474  -3.7424602  -1.6479314  -9.9500474  -3.1194602  -1.4159314
  -1.3330474 -11.4364602  -5.9249314  -2.1080474 -11.0144602  -5.5539314
  -1.2100474 -11.0104602  -6.7729314 -19.8670474  -8.6564602   6.1260686
 -19.3750474  -8.8044602   5.3190686 -20.1780474  -9.5254602   6.3810686
  -8.2300474   7.7095398   7.2180686  -7.5370474   8.2425398   6.8270686
  -8.5720474   8.2475398   7.9320686 -17.2360474   2.0905398 -19.4009314
 -16.8150474   2.3395398 -18.5779314 -16.5260474   1.7355398 -19.9349314
 -19.8820474  -3.2614602 -18.0499314 -19.7530474  -2.3134602 -18.0209314
 -19.0370474  -3.6104602 -18.3309314 -17.2460474 -13.3544602  -1.2309314
 -16.6470474 -13.6504602  -0.5449314 -17.7210474 -14.1434602  -1.4909314
 -16.9990474 -15.2654602   3.6930686 -17.0460474 -16.2214602   3.6780686
 -17.6520474 -14.9824602   3.0540686 -19.3550474  -8.7474602 -16.2079314
 -20.1880474  -9.1154602 -15.9109314 -19.4480474  -7.8044602 -16.0719314
 -10.8300474 -19.2414602   6.1720686 -11.0150474 -19.1874602   7.1090686
 -11.2350474 -18.4574602   5.8010686 -19.4370474 -11.9264602   7.6640686
 -19.2010474 -12.8124602   7.3900686 -18.8120474 -11.7144602   8.3570686
  -2.7940474 -17.6924602  -4.4559314  -2.3020474 -17.0284602  -4.9389314
  -3.6460474 -17.7234602  -4.8909314 -13.7600474   8.1595398   3.0210686
 -12.9750474   8.7045398   3.0710686 -13.7420474   7.7925398   2.1370686
 -12.6200474  -4.6074602   6.7530686 -12.2970474  -5.1454602   6.0290686
 -12.3750474  -3.7134602   6.5150686 -17.2140474 -14.9684602   8.4820686
 -16.6370474 -14.7454602   7.7520686 -16.6800474 -14.8224602   9.2630686
 -13.8870474 -11.4294602   3.9200686 -14.5450474 -10.8364602   4.2830686
 -14.3730474 -12.2254602   3.7040686 -20.2740474 -12.3414602  -6.8279314
 -20.7850474 -11.7204602  -6.3099314 -20.9260474 -12.9224602  -7.2179314
 -12.7900474 -19.7664602 -16.0709314 -13.3400474 -19.6954602 -16.8519314
 -11.9360474 -19.4354602 -16.3489314  -7.3530474   4.0205398   6.8030686
  -8.0880474   3.4675398   6.5390686  -6.8200474   4.1045398   6.0120686
 -15.7550474 -14.3894602   6.0580686 -16.2360474 -14.5034602   5.2390686
 -15.6360474 -13.4434602   6.1370686  -8.5990474 -10.7094602   5.5170686
  -9.4370474 -10.8434602   5.0750686  -8.3000474 -11.5914602   5.7370686
   1.8579526 -15.4594602  -2.3369314   0.9189526 -15.4994602  -2.5189314
   2.2719526 -15.7884602  -3.1349314 -17.7530474 -10.0604602  -4.3649314
 -18.5170474 -10.4804602  -3.9709314 -17.0030474 -10.5064602  -3.9699314
  -6.6050474  -3.6834602  -0.8329314  -6.4400474  -2.9954602  -1.4789314
  -6.2430474  -4.4754602  -1.2289314 -11.4870474 -20.1154602   2.8810686
 -11.1120474 -20.2344602   3.7540686 -10.7370474 -19.9094602   2.3230686
 -18.5360474 -19.4944602   3.1090686 -17.8650474 -18.9424602   3.5120686
 -19.1560474 -18.8754602   2.7250686 -15.1080474  -4.9854602 -12.4189314
 -15.2950474  -5.9154602 -12.2939314 -15.0770474  -4.6244602 -11.5329314
 -13.3640474  -6.6844602   8.5080686 -12.9410474  -5.9194602   8.1170686
 -13.8500474  -6.3344602   9.2550686 -21.1350474 -20.9034602   9.4530686
 -20.3350474 -20.4574602   9.7310686 -21.8020474 -20.2164602   9.4450686
 -10.1790474  -9.3154602  -0.5249314 -10.6810474 -10.1054602  -0.7219314
 -10.2580474  -8.7784602  -1.3139314 -19.8710474   6.4265398   9.0870686
 -19.6440474   6.2325398   8.1770686 -20.0050474   7.3735398   9.1040686
 -14.0870474  -2.2504602   9.3900686 -13.8500474  -2.7644602  10.1620686
 -14.6820474  -1.5784602   9.7220686 -12.0980474 -17.0194602   5.2230686
 -12.9970474 -16.9564602   5.5460686 -12.1880474 -17.0654602   4.2710686
 -14.7510474 -10.1214602  10.0340686 -13.8030474  -9.9914602  10.0420686
 -14.9200474 -10.7074602  10.7720686 -15.4990474 -13.2824602   3.0560686
 -15.9060474 -14.1404602   3.1740686 -16.0120474 -12.8664602   2.3630686
 -16.9510474 -19.0434602  10.1690686 -17.5070474 -19.1154602  10.9440686
 -17.4350474 -19.5014602   9.4820686   6.0239526 -21.6244602   7.8850686
   6.3939526 -20.8804602   8.3600686   6.5489526 -21.6854602   7.0870686
  -4.0830474 -17.9984602   2.8670686  -4.0510474 -18.9124602   3.1510686
  -3.5730474 -17.9814602   2.0570686  -9.8760474  -7.1274602 -16.2419314
  -9.4800474  -6.8524602 -17.0679314 -10.3080474  -7.9564602 -16.4469314
  -8.2520474 -19.8854602   4.8450686  -7.6110474 -19.9784602   5.5500686
  -9.0190474 -19.4994602   5.2680686 -13.6900474 -10.6974602   1.3180686
 -14.6140474 -10.5404602   1.1240686 -13.6820474 -10.9854602   2.2310686
 -14.7210474  -4.3764602   4.1070686 -13.8410474  -4.4614602   4.4730686
 -14.9350474  -3.4484602   4.2080686 -15.6990474 -13.5234602 -14.0969314
 -16.2680474 -12.7714602 -13.9319314 -14.9410474 -13.3804602 -13.5309314
   7.2059526 -13.3644602  -8.0609314   7.2829526 -14.2784602  -8.3359314
   6.3839526 -13.0654602  -8.4489314  -1.8450474 -11.8894602 -17.4689314
  -1.3770474 -12.5124602 -16.9139314  -1.3650474 -11.8984602 -18.2979314
 -18.0150474  -2.6764602 -12.9919314 -17.6180474  -1.8314602 -12.7789314
 -17.5010474  -3.0034602 -13.7299314 -22.0320474   7.6035398 -18.2659314
 -21.7320474   8.1155398 -19.0169314 -21.8720474   6.6935398 -18.5159314
 -16.0010474 -16.9594602  -4.0119314 -16.4830474 -16.4074602  -4.6269314
 -16.6280474 -17.1444602  -3.3129314  -7.6590474 -13.2504602   5.8500686
  -8.3730474 -13.8834602   5.9210686  -7.1880474 -13.3254602   6.6800686
  -6.7580474  -4.6944602 -12.5699314  -7.4630474  -4.9884602 -13.1479314
  -7.2000474  -4.4524602 -11.7559314 -21.2930474 -11.8684602   5.7230686
 -20.5840474 -11.9924602   6.3540686 -20.8570474 -11.5614602   4.9290686
  -7.4670474 -21.3684602  -6.2539314  -6.8020474 -22.0184602  -6.0249314
  -7.3220474 -20.6494602  -5.6399314  -8.5140474  -3.3344602  -8.7429314
  -8.5390474  -3.3864602  -7.7879314  -8.6230474  -4.2404602  -9.0349314
 -17.7950474 -17.5234602   7.3900686 -18.7230474 -17.3884602   7.1990686
 -17.5610474 -16.7994602   7.9700686 -18.3420474  -8.7684602   3.8620686
 -18.3830474  -7.8224602   4.0040686 -18.0260474  -8.8614602   2.9630686
  -1.3680474 -19.2504602   4.8230686  -1.7150474 -19.4134602   3.9460686
  -1.4670474 -20.0854602   5.2800686  -8.2770474   1.6135398  -9.3169314
  -8.0890474   2.0785398 -10.1329314  -8.1540474   0.6895398  -9.5339314
  -7.5940474  -9.4744602  -3.1489314  -7.9750474  -8.7164602  -2.7049314
  -6.7370474  -9.5874602  -2.7379314 -13.1940474  -4.2654602 -18.8389314
 -12.4290474  -4.6404602 -19.2749314 -12.8320474  -3.7684602 -18.1049314
 -13.2670474   6.2975398   5.4890686 -13.4530474   6.0475398   4.5840686
 -12.5200474   6.8925398   5.4250686 -15.6990474  -9.7144602   4.9110686
 -16.5400474  -9.3934602   4.5830686 -15.3500474  -8.9884602   5.4270686
 -22.7430474 -12.7214602   0.8880686 -23.0270474 -13.5244602   1.3240686
 -22.9290474 -12.0264602   1.5190686 -11.5450474 -11.5994602  -0.7279314
 -12.1590474 -12.2574602  -1.0529314 -11.6970474 -11.5744602   0.2170686
  -8.5230474  -0.5944602 -18.4319314  -9.3930474  -0.3094602 -18.7109314
  -8.0610474  -0.7884602 -19.2469314 -12.1330474 -11.5624602  -4.1279314
 -11.2000474 -11.3694602  -4.2219314 -12.1630474 -12.3404602  -3.5719314
 -19.3530474 -14.3384602   6.5610686 -18.5530474 -14.8574602   6.6450686
 -19.4990474 -14.2744602   5.6170686  -3.0820474  -5.7804602  -6.3959314
  -2.3230474  -5.8284602  -5.8149314  -3.6160474  -6.5384602  -6.1569314
 -21.9190474  -7.3494602  10.1560686 -21.3710474  -6.5854602   9.9740686
 -21.9610474  -7.3924602  11.1110686 -11.5640474  -8.3354602   9.4010686
 -12.2040474  -7.7884602   8.9460686 -11.0060474  -8.6824602   8.7050686
   5.5229526 -20.2124602  -1.7109314   5.4659526 -21.1364602  -1.4669314
   5.4689526 -19.7414602  -0.8789314  -5.9470474  -4.9154602   3.1470686
  -6.1030474  -3.9924602   3.3480686  -5.0470474  -4.9414602   2.8230686
   4.0199526  -9.6214602 -17.6219314   4.0109526  -9.0464602 -16.8559314
   4.7239526 -10.2454602 -17.4469314  -7.0760474 -18.2184602 -17.9899314
  -6.5170474 -18.9944602 -18.0279314  -7.4210474 -18.1274602 -18.8779314
 -22.0350474 -18.1114602   4.4770686 -22.3540474 -18.9884602   4.2660686
 -21.2720474 -17.9904602   3.9110686  -9.0170474  -1.8094602  -2.2329314
  -9.0900474  -1.0044602  -2.7459314  -8.2050474  -2.2154602  -2.5379314
 -12.3910474 -14.3514602  -3.5559314 -12.3660474 -15.2054602  -3.1239314
 -12.7690474 -14.5294602  -4.4169314  -6.9990474   6.1155398   1.4470686
  -7.4490474   5.4175398   0.9710686  -7.6120474   6.3695398   2.1360686
  -7.3520474 -17.3404602   6.6320686  -8.0470474 -16.6824602   6.6430686
  -7.1190474 -17.4284602   5.7080686  -5.2730474   8.5445398   3.1680686
  -5.4820474   7.8445398   2.5500686  -5.6020474   8.2275398   4.0090686
 -13.5320474 -13.4454602   8.7740686 -14.1080474 -13.3524602   8.0150686
 -12.7230474 -13.0034602   8.5170686 -14.9630474 -14.4324602   0.2530686
 -14.9860474 -15.3884602   0.2260686 -14.1230474 -14.2234602   0.6630686
  -6.0110474   8.4145398 -13.8049314  -6.1600474   7.6795398 -13.2089314
  -6.2940474   8.0905398 -14.6599314 -13.0800474   5.6995398 -14.0819314
 -13.9770474   5.9175398 -14.3359314 -12.5420474   6.0135398 -14.8089314
 -21.7880474 -15.4754602  -9.8419314 -22.2610474 -15.2084602 -10.6299314
 -20.9890474 -14.9484602  -9.8509314 -11.7580474   1.3775398   1.3000686
 -11.7250474   0.4295398   1.4230686 -12.3890474   1.5055398   0.5910686
 -11.8230474   4.1775398 -12.1579314 -12.0160474   4.6595398 -11.3549314
 -12.1500474   4.7405398 -12.8599314 -20.2350474  -2.7464602  -8.5069314
 -19.7260474  -2.1994602  -7.9089314 -19.8550474  -2.5764602  -9.3689314
  -8.9430474  -5.9974602 -13.6919314  -8.7920474  -6.9354602 -13.8059314
  -9.5270474  -5.7594602 -14.4119314 -20.7420474 -16.8524602  -7.3929314
 -21.2180474 -16.5114602  -8.1499314 -21.0660474 -16.3384602  -6.6539314
 -13.1880474   6.5405398 -10.8669314 -13.4880474   6.5325398 -11.7749314
 -13.7630474   7.1685398 -10.4299314 -11.1820474  -1.1414602   1.7880686
 -11.2890474  -2.0144602   1.4110686 -10.5680474  -1.2664602   2.5130686
  -9.0500474 -14.7904602 -17.0129314  -9.8420474 -14.3274602 -17.2889314
  -9.3590474 -15.4354602 -16.3769314 -17.9100474   7.9905398  -1.2389314
 -17.7760474   8.1395398  -0.3029314 -18.2950474   8.8065398  -1.5589314
 -12.4040474  -1.6624602 -13.3729314 -13.0540474  -2.0154602 -13.9799314
 -12.9150474  -1.1514602 -12.7449314  -9.8190474 -16.4034602 -14.8189314
  -9.2270474 -16.4124602 -14.0669314 -10.5120474 -17.0214602 -14.5859314
 -19.5830474   3.0755398  -0.1149314 -18.7040474   2.6995398  -0.1599314
 -19.4930474   3.9435398  -0.5079314 -22.8720474  -0.0514602 -14.7839314
 -21.9790474  -0.3744602 -14.8999314 -23.4200474  -0.6924602 -15.2379314
  -7.1490474   4.3525398 -14.7369314  -7.2690474   3.5705398 -15.2769314
  -7.9900474   4.4695398 -14.2939314  -8.6920474  -1.2004602  -6.2919314
  -8.4490474  -0.3134602  -6.5579314  -7.8650474  -1.6104602  -6.0379314
  -5.3020474  -0.0574602   1.9670686  -5.7970474   0.6695398   2.3450686
  -5.7050474  -0.8414602   2.3400686 -10.0670474   3.4435398   2.4200686
 -10.4220474   2.7245398   1.8970686  -9.5830474   3.9795398   1.7920686
 -18.2320474   0.9605398  -2.8979314 -17.6330474   1.7065398  -2.8669314
 -17.6990474   0.2145398  -2.6219314 -17.1120474  -0.1324602 -12.7179314
 -16.4560474   0.2505398 -12.1359314 -17.9280474  -0.0944602 -12.2189314
  -5.4250474   6.1425398 -11.7429314  -6.2710474   5.7595398 -11.5129314
  -5.0380474   5.5195398 -12.3579314 -20.6000474  -2.7424602 -13.9589314
 -21.2470474  -2.9034602 -13.2709314 -19.7550474  -2.8774602 -13.5299314
  -8.6040474   7.2525398 -12.1109314  -8.1540474   6.6175398 -11.5549314
  -8.9430474   6.7345398 -12.8409314 -16.4140474  -2.6254602 -17.1029314
 -17.0060474  -2.0104602 -17.5359314 -16.9130474  -3.4404602 -17.0479314
 -17.0580474   5.8585398  10.4560686 -17.6540474   6.0215398   9.7240686
 -17.5480474   5.2795398  11.0400686  -6.4730474  -2.4624602   1.7600686
  -6.4060474  -3.1734602   1.1230686  -7.2160474  -1.9394602   1.4590686
 -15.6450474   1.5595398 -16.0909314 -15.3370474   2.3225398 -16.5789314
 -15.2640474   1.6625398 -15.2189314 -12.5340474   1.9485398  -2.3649314
 -13.2820474   1.6775398  -1.8329314 -12.3960474   1.2215398  -2.9729314
  -7.4650474   3.5715398  -5.4689314  -6.6640474   3.6815398  -5.9809314
  -7.8290474   2.7385398  -5.7689314 -13.7430474 -16.0914602 -13.7349314
 -14.0590474 -15.8584602 -14.6079314 -13.4910474 -17.0114602 -13.8079314
 -18.6370474  -1.3824602  -6.9139314 -19.0660474  -0.5734602  -6.6369314
 -17.8760474  -1.4594602  -6.3379314 -19.6630474  -6.0454602 -16.2729314
 -19.2740474  -5.3874602 -16.8489314 -19.1100474  -6.0374602 -15.4919314
 -18.7310474  -3.7484602 -10.5539314 -18.6790474  -3.3674602 -11.4299314
 -19.3180474  -4.4974602 -10.6519314 -11.7460474   7.8335398  -5.3839314
 -10.9500474   7.4925398  -4.9759314 -12.0810474   8.4765398  -4.7579314
 -11.6390474   7.8945398 -18.7289314 -11.7660474   7.5715398 -19.6209314
 -12.1840474   8.6805398 -18.6789314 -12.7460474  -7.1934602  -1.5499314
 -13.2040474  -8.0304602  -1.6299314 -11.9730474  -7.2884602  -2.1059314
 -16.2050474   3.3375398 -12.4589314 -15.5960474   2.8545398 -13.0169314
 -16.8580474   3.6895398 -13.0639314 -22.1290474  -3.7514602 -16.4129314
 -21.5350474  -3.6964602 -15.6639314 -21.6040474  -3.4604602 -17.1579314
 -15.9970474   4.5265398  -6.4659314 -16.1490474   5.4625398  -6.3379314
 -15.0490474   4.4245398  -6.3819314 -12.9410474   3.9755398  -7.9679314
 -12.8490474   4.6745398  -7.3199314 -13.3790474   4.3935398  -8.7099314
 -12.0040474   0.7425398 -17.5379314 -12.0390474  -0.1414602 -17.9039314
 -12.4760474   1.2835398 -18.1709314 -22.2950474  -6.7864602 -17.0499314
 -22.9240474  -6.0754602 -16.9309314 -21.4440474  -6.3864602 -16.8729314
  -7.0570474   2.3535398 -11.5439314  -6.9960474   2.2435398 -12.4929314
  -6.1530474   2.4805398 -11.2579314 -15.2320474  -5.8924602  -1.2559314
 -15.5290474  -5.9234602  -0.3469314 -14.4550474  -6.4514602  -1.2749314
 -18.5450474   1.0325398  -8.5779314 -19.0840474   1.4825398  -7.9269314
 -17.8540474   1.6595398  -8.7919314 -11.2800474   1.7295398  -8.2579314
 -10.9960474   1.7235398  -9.1719314 -11.9600474   2.4025398  -8.2219314
 -19.6020474   0.8195398  -5.3089314 -19.2650474   1.5755398  -5.7899314
 -19.0920474   0.8025398  -4.4989314  -2.8240474 -18.4974602 -18.0649314
  -2.4770474 -19.1814602 -18.6379314  -3.6850474 -18.8214602 -17.7999314
   5.2669526 -19.1074602   0.6680686   4.4649526 -19.3204602   1.1460686
   5.5189526 -18.2434602   0.9930686  -3.6890474   7.3725398 -10.1759314
  -4.2280474   7.7605398  -9.4869314  -4.3120474   7.1325398 -10.8619314
 -21.9180474 -21.5344602   6.2540686 -21.1330474 -21.4634602   5.7110686
 -21.6680474 -21.1404602   7.0900686 -22.1280474  -4.8424602  -3.5659314
 -22.7320474  -5.2764602  -2.9629314 -22.6030474  -4.0674602  -3.8649314
 -16.1710474   2.6485398  -9.4979314 -16.0710474   3.5565398  -9.2129314
 -16.0410474   2.6785398 -10.4459314 -12.4770474 -20.0854602  -3.7609314
 -12.3110474 -20.0574602  -2.8179314 -12.2020474 -19.2254602  -4.0779314
 -11.6010474  -2.3094602   5.8570686 -10.8700474  -2.1984602   5.2490686
 -11.4300474  -1.6774602   6.5550686 -19.5790474  -2.1564602  -1.2819314
 -20.4680474  -1.9634602  -0.9829314 -19.0150474  -1.8524602  -0.5719314
   3.4279526 -13.0084602  -4.7759314   3.0219526 -12.1414602  -4.7559314
   2.6899526 -13.6184602  -4.7829314 -19.8040474   0.4165398 -11.3029314
 -19.4910474   1.1735398 -10.8069314 -20.7580474   0.4935398 -11.2819314
  -7.4730474   1.7245398   0.5260686  -6.9040474   1.5825398  -0.2299314
  -7.9090474   0.8835398   0.6600686 -15.8480474  -0.0794602 -10.2059314
 -15.6470474   0.6825398  -9.6619314 -16.3610474  -0.6524602  -9.6359314
 -10.8440474   7.3575398  -9.7789314 -11.6820474   7.0095398 -10.0849314
 -10.3890474   7.6235398 -10.5779314 -11.6400474   4.5655398  -2.9569314
 -11.0160474   4.4955398  -3.6789314 -11.6400474   3.6965398  -2.5539314
 -12.0440474  -3.0574602 -16.7189314 -12.2380474  -2.1254602 -16.6139314
 -11.3480474  -3.2304602 -16.0839314  -9.2660474 -21.0864602 -17.6359314
 -10.0470474 -21.3094602 -18.1419314  -9.2610474 -20.1294602 -17.6099314
 -19.7360474 -20.9464602 -14.9089314 -18.7810474 -20.8794602 -14.9149314
 -20.0320474 -20.1214602 -14.5249314 -13.4890474  -0.0744602 -11.5089314
 -14.0930474  -0.0474602 -10.7669314 -12.6990474   0.3635398 -11.1909314
 -13.1040474  -5.6534602   2.3110686 -14.0140474  -5.3784602   2.4190686
 -13.1610474  -6.5624602   2.0170686 -14.9160474  -0.2074602  -4.8229314
 -14.0180474  -0.1974602  -4.4919314 -14.9320474   0.4725398  -5.4959314
   2.5539526   3.6415398 -10.8999314   1.6669526   3.8895398 -11.1589314
   2.9909526   3.4205398 -11.7229314 -14.6690474  -1.8044602   5.7800686
 -14.8620474  -2.3444602   6.5470686 -13.7140474  -1.8054602   5.7200686
  -9.9590474 -20.2244602  -6.9479314  -9.3360474 -20.9244602  -6.7509314
 -10.8030474 -20.5654602  -6.6529314   6.9329526   5.3665398 -10.5339314
   6.3269526   4.6685398 -10.7869314   7.5219526   4.9545398  -9.9019314
  -9.6360474   4.4915398 -13.9189314  -9.8320474   4.3255398 -12.9969314
 -10.3970474   4.1545398 -14.3909314  -8.9420474   1.6665398  -6.7319314
  -9.8490474   1.5885398  -7.0299314  -8.4350474   1.7825398  -7.5349314
 -14.9440474   1.6715398   5.1170686 -14.2790474   1.1715398   4.6440686
 -14.9550474   2.5255398   4.6830686 -15.7100474 -19.3444602   0.3140686
 -15.1580474 -20.1104602   0.1570686 -16.4610474 -19.6854602   0.8010686
  -6.2440474  -9.2464602 -18.2859314  -6.7660474  -8.4914602 -18.5589314
  -6.6780474  -9.5644602 -17.4939314 -11.4660474  -5.6654602   4.4610686
 -10.8220474  -5.1404602   3.9850686 -12.1240474  -5.8914602   3.8040686
  -8.4090474  -8.6774602 -13.6109314  -8.5370474  -8.8554602 -12.6789314
  -9.2920474  -8.6884602 -13.9809314 -12.0140474  -1.7794602  -9.5459314
 -12.8060474  -1.7224602  -9.0119314 -11.3000474  -1.5964602  -8.9349314
  -3.8840474  -6.8314602 -13.8769314  -3.7310474  -5.9884602 -13.4509314
  -4.0880474  -7.4294602 -13.1579314 -16.1410474   6.9435398  -5.2499314
 -15.5500474   7.6765398  -5.0759314 -16.9460474   7.1685398  -4.7839314
   4.4429526 -21.2194602  -6.6499314   4.5999526 -21.8564602  -5.9529314
   5.0269526 -20.4894602  -6.4439314 -10.7970474  -3.1804602 -11.7459314
 -11.1650474  -2.9524602 -10.8919314 -11.3450474  -2.7114602 -12.3759314
   1.7529526  -1.9544602  -6.9979314   1.9949526  -2.6634602  -6.4029314
   1.2809526  -2.3884602  -7.7089314 -21.4560474   8.1815398  -3.5899314
 -21.4770474   9.1325398  -3.4789314 -20.6250474   8.0105398  -4.0329314
 -16.0770474  -0.9874602  -1.5929314 -15.4590474  -1.6844602  -1.8119314
 -16.6350474  -1.3654602  -0.9129314   2.3099526  -6.6634602 -18.1299314
   2.4079526  -7.4434602 -18.6769314   1.5269526  -6.2284602 -18.4709314
  -4.0420474   6.0805398 -16.1339314  -3.1830474   5.7985398 -15.8209314
  -4.6570474   5.7475398 -15.4809314 -14.5520474 -17.3514602 -17.6229314
 -14.4610474 -16.7084602 -16.9199314 -15.3730474 -17.8054602 -17.4289314
 -11.7080474   7.2335398 -16.0139314 -11.6980474   8.0645398 -15.5379314
 -11.3050474   7.4365398 -16.8589314 -16.7770474   1.9765398   0.6170686
 -16.5830474   1.7595398  -0.2949314 -15.9500474   2.3125398   0.9650686
 -12.6990474   6.9045398  -7.5209314 -11.9020474   6.7665398  -8.0329314
 -12.3870474   7.0745398  -6.6319314 -21.2290474   6.9205398 -11.9009314
 -20.5600474   6.4115398 -12.3569314 -22.0140474   6.3745398 -11.9389314
  -3.6000474   5.1475398  -5.4509314  -3.2990474   5.3455398  -4.5639314
  -3.5480474   4.1935398  -5.5149314 -19.5560474   3.1795398 -10.4169314
 -19.1540474   4.0155398 -10.1819314 -20.3920474   3.4195398 -10.8179314
 -21.4970474   5.2255398 -19.0869314 -20.7210474   5.5385398 -19.5519314
 -21.6750474   4.3665398 -19.4689314  -0.5440474  -6.8994602 -10.7949314
  -1.1700474  -6.8634602 -10.0719314   0.2279526  -6.4374602 -10.4669314
 -21.3980474  -2.4694602  -5.8769314 -22.0880474  -2.0844602  -6.4169314
 -20.9050474  -3.0264602  -6.4799314 -18.9650474   5.3375398  -1.3369314
 -19.1470474   5.2905398  -2.2749314 -18.4570474   6.1425398  -1.2319314
  -9.6300474   0.5225398  -3.8709314 -10.5820474   0.4295398  -3.8459314
  -9.3900474   0.2965398  -4.7689314  -9.9540474  -0.1634602 -13.1189314
  -9.4240474   0.2765398 -13.7839314 -10.5070474  -0.7684602 -13.6139314
 -19.4690474 -15.3484602 -17.5779314 -18.9070474 -14.6814602 -17.9729314
 -18.9340474 -15.7304602 -16.8819314  -5.8980474   2.0685398 -19.3839314
  -5.4430474   2.8385398 -19.0429314  -6.7690474   2.3885398 -19.6199314
 -15.7150474   0.9455398   8.6300686 -16.3020474   0.8355398   7.8820686
 -14.8360474   0.8705398   8.2570686  -4.6510474  -8.9314602 -12.0469314
  -5.2030474  -9.5594602 -12.5129314  -5.2510474  -8.4794602 -11.4539314
 -22.7730474 -17.9704602 -13.6459314 -22.9180474 -18.8844602 -13.8879314
 -22.8370474 -17.9624602 -12.6909314  -3.0060474 -21.2384602   6.8320686
  -3.6030474 -21.4764602   7.5410686  -2.6140474 -20.4124602   7.1150686
 -14.2140474 -16.5934602   6.7360686 -14.3440474 -16.6944602   7.6790686
 -14.9430474 -16.0424602   6.4500686 -17.8550474 -20.5294602   8.1340686
 -17.6730474 -19.7204602   7.6570686 -17.9860474 -21.1864602   7.4500686
 -10.2940474   0.5195398   5.0440686 -10.1970474   0.2405398   5.9550686
  -9.7700474  -0.1064602   4.5440686 -18.1620474   4.9005398 -17.4019314
 -18.0790474   4.1795398 -16.7779314 -18.9820474   5.3315398 -17.1639314
 -13.6340474   4.9335398  -4.7799314 -13.1790474   4.7275398  -3.9639314
 -13.8010474   5.8755398  -4.7309314  -6.6540474   1.9195398   2.9750686
  -7.0050474   2.0235398   2.0910686  -7.4140474   2.0265398   3.5490686
 -15.9150474  -5.5344602   1.2510686 -16.4890474  -5.7924602   1.9730686
 -15.9160474  -4.5774602   1.2750686  -6.4990474   6.4015398  -3.4429314
  -6.1170474   6.9235398  -2.7389314  -5.9280474   6.5585398  -4.1959314
  -8.7680474   2.6295398   4.6010686  -9.2790474   1.8485398   4.8110686
  -9.3280474   3.1305398   4.0080686  -9.3720474  -4.5324602   2.8630686
  -8.8090474  -5.1424602   3.3400686  -9.4810474  -4.9314602   2.0000686
  -9.4270474  -2.0494602   4.0410686  -9.3080474  -2.8584602   3.5430686
  -8.7140474  -2.0524602   4.6790686 -17.3920474  -0.6654602 -18.8489314
 -18.2970474  -0.6264602 -19.1589314 -17.0410474   0.2075398 -19.0229314
 -18.9900474   2.2035398   8.4210686 -19.1350474   1.2675398   8.2810686
 -18.3030474   2.2435398   9.0860686  -8.2120474   4.2545398   0.1600686
  -8.0820474   4.2645398  -0.7889314  -8.2730474   3.3265398   0.3840686
 -11.2520474   7.9585398   5.6400686 -11.3900474   8.7465398   6.1660686
 -10.3160474   7.7755398   5.7230686 -17.2830474   4.0025398   2.5840686
 -16.7750474   4.3975398   1.8750686 -17.6430474   3.2015398   2.2040686
 -14.4500474 -18.9754602   5.4460686 -14.8180474 -19.7174602   5.9250686
 -14.4410474 -18.2604602   6.0820686 -19.3400474  -0.5564602   8.4480686
 -20.2140474  -0.6694602   8.0750686 -18.7460474  -0.8684602   7.7670686
 -12.2730474  -0.4544602  -3.7349314 -11.8590474  -1.2034602  -3.3069314
 -12.0210474  -0.5334602  -4.6549314 -15.1090474  -3.9224602   7.4830686
 -14.9590474  -3.4364602   8.2940686 -14.2390474  -4.2164602   7.2140686
  -8.3080474   7.2745398   4.0270686  -7.7610474   6.8335398   4.6780686
  -8.2610474   8.2005398   4.2620686 -14.8980474   4.0835398   9.6260686
 -15.5630474   4.4685398  10.1970686 -15.3410474   3.9665398   8.7860686
  -5.6740474   4.3105398   4.7470686  -4.9180474   4.2275398   4.1660686
  -6.2660474   3.6105398   4.4720686  -6.5270474   3.4985398  -2.9599314
  -6.9290474   3.4495398  -3.8269314  -6.2160474   4.4005398  -2.8899314
 -23.0120474   4.1625398   3.4720686 -23.1250474   3.3665398   3.9910686
 -22.0720474   4.2025398   3.2950686 -14.1770474   3.7565398 -16.6989314
 -13.4570474   3.8265398 -17.3249314 -14.6170474   4.6055398 -16.7439314
   3.8609526 -17.8644602   3.2440686   3.8629526 -18.6924602   3.7240686
   4.4449526 -17.2954602   3.7440686 -17.4240474  -4.5014602   5.9760686
 -17.5330474  -5.4084602   6.2640686 -16.5660474  -4.2444602   6.3140686
 -12.9910474 -17.9754602   2.3410686 -13.7950474 -18.0684602   2.8520686
 -12.4010474 -18.6394602   2.6970686 -11.5720474   7.4225398   8.4150686
 -12.5220474   7.4165398   8.2970686 -11.2190474   7.2675398   7.5390686
 -14.4260474  -8.8724602  -6.7079314 -14.1520474  -8.3184602  -7.4379314
 -13.6610474  -9.4164602  -6.5189314 -18.0410474   0.4765398 -14.9899314
 -17.4260474   0.8075398 -15.6449314 -17.5220474   0.4055398 -14.1879314
 -21.7260474   2.3385398 -17.2009314 -21.2060474   1.8425398 -17.8329314
 -21.2880474   2.1925398 -16.3629314 -21.6340474  -0.6084602   2.8430686
 -21.3840474  -1.2764602   2.2050686 -20.9480474   0.0555398   2.7770686
 -15.4970474   4.6725398   0.5740686 -15.4850474   5.1195398  -0.2719314
 -14.6680474   4.9175398   0.9860686 -12.0650474 -19.3384602   8.6460686
 -12.9450474 -19.5374602   8.3260686 -12.1890474 -19.1194602   9.5690686
 -21.0000474   4.5135398   6.9550686 -21.8800474   4.8515398   6.7930686
 -21.1000474   3.9375398   7.7130686   3.5909526   1.8805398 -15.5929314
   4.3579526   1.7665398 -16.1539314   3.2429526   2.7385398 -15.8339314
 -10.8030474   6.8075398   2.6690686 -10.0470474   6.8185398   3.2560686
 -10.9960474   7.7315398   2.5090686 -16.0050474   8.1295398   4.9190686
 -15.5050474   7.5955398   5.5360686 -15.3730474   8.3705398   4.2420686
  -7.0310474 -19.4254602   2.2160686  -7.3950474 -19.5734602   3.0890686
  -6.1270474 -19.7334602   2.2780686 -14.0150474   0.1415398   0.3740686
 -14.6790474   0.0615398  -0.3109314 -13.9240474  -0.7444602   0.7250686
  -3.5690474  -2.1304602   0.8540686  -3.8810474  -2.4174602  -0.0039314
  -4.3660474  -1.9414602   1.3490686  -8.3750474 -18.1724602   9.2540686
  -8.7380474 -19.0414602   9.0780686  -7.8560474 -17.9684602   8.4760686
  -9.8450474 -19.9754602   0.5170686  -8.9450474 -19.9254602   0.8400686
  -9.9700474 -20.8984602   0.2970686 -14.6570474 -20.2624602   8.6600686
 -15.3140474 -20.1214602   9.3420686 -14.7210474 -21.1964602   8.4560686
 -12.7740474   0.4845398   3.6830686 -12.6140474   0.9695398   2.8730686
 -11.9140474   0.4195398   4.0980686  -4.4230474 -13.5014602 -17.8759314
  -3.7100474 -13.1474602 -17.3449314  -4.8590474 -12.7294602 -18.2379314
 -15.6310474   4.8815398   6.8120686 -16.5560474   4.7555398   6.5990686
 -15.1900474   4.8965398   5.9630686  -8.4570474  -0.6194602 -15.7049314
  -8.5420474  -0.7624602 -16.6479314  -7.8870474  -1.3274602 -15.4059314
 -15.7700474   6.0175398  -1.7989314 -16.0810474   5.7465398  -2.6629314
 -16.3690474   6.7165398  -1.5369314   2.1839526 -18.5164602   5.9210686
   1.8499526 -18.8354602   5.0830686   2.7269526 -19.2324602   6.2510686
  -7.1120474   7.1935398 -16.2299314  -7.2480474   6.2675398 -16.4299314
  -7.7800474   7.6505398 -16.7409314 -13.8240474 -20.3534602 -18.3079314
 -14.5080474 -21.0234602 -18.3319314 -14.2370474 -19.5754602 -18.6809314
 -14.8770474   7.6385398  -8.9459314 -14.2980474   7.3165398  -8.2559314
 -15.3990474   8.3195398  -8.5219314 -10.0770474  -4.6684602  -5.6179314
 -10.4450474  -5.5484602  -5.5459314 -10.7160474  -4.1834602  -6.1409314
 -14.4870474   7.0575398   8.3140686 -14.8130474   6.4735398   7.6290686
 -14.8890474   6.7305398   9.1190686  -9.7880474  -6.2944602   6.8760686
  -9.9100474  -7.2434602   6.8530686  -9.7070474  -6.0414602   5.9560686
 -17.4080474 -21.3534602   1.4140686 -17.7580474 -20.7264602   2.0470686
 -17.5460474 -22.2084602   1.8230686  -8.2390474 -13.7334602 -14.1279314
  -7.5470474 -13.8544602 -14.7779314  -8.5100474 -14.6224602 -13.8989314
 -10.6670474 -15.1834602 -11.6059314  -9.8460474 -15.6104602 -11.8489314
 -11.3330474 -15.6274602 -12.1309314 -12.1360474 -15.3184602  10.4830686
 -11.7890474 -14.6404602  11.0620686 -12.7560474 -14.8574602   9.9170686
   2.0509526  -6.4124602 -13.0679314   1.1619526  -6.1854602 -13.3419314
   2.5819526  -5.6594602 -13.3259314  -3.5330474 -13.9834602  -6.6909314
  -3.3460474 -13.5504602  -7.5239314  -3.9300474 -13.3014602  -6.1489314
   0.5269526 -13.4294602  -4.8829314   0.1529526 -13.0614602  -5.6839314
   0.1609526 -14.3124602  -4.8309314   4.5689526 -17.5354602  -8.8299314
   4.4269526 -17.2354602  -9.7269314   4.8039526 -18.4594602  -8.9189314
   0.9319526 -13.6184602  -8.3499314   0.3549526 -13.0444602  -8.8529314
   1.5929526 -13.9054602  -8.9799314   1.2299526 -20.1794602  -8.5409314
   0.3139526 -20.0604602  -8.2909314   1.1999526 -20.7874602  -9.2789314
 -22.8490474 -14.8014602  -1.8999314 -22.1310474 -14.1974602  -1.7109314
 -23.1920474 -14.5084602  -2.7439314  -3.5220474  -9.5054602 -17.7749314
  -4.4650474  -9.4104602 -17.9099314  -3.3490474 -10.4324602 -17.9419314
  -4.2870474 -16.6394602  -6.9749314  -3.7170474 -17.0464602  -7.6279314
  -3.9130474 -15.7684602  -6.8389314   4.8509526 -18.7444602 -15.5339314
   5.3059526 -19.5114602 -15.8819314   4.1309526 -18.5944602 -16.1459314
  -7.0400474 -14.5124602 -18.8229314  -7.7070474 -14.6774602 -18.1559314
  -6.4530474 -13.8724602 -18.4219314   3.0299526 -16.0934602  -4.7149314
   3.2489526 -15.6904602  -5.5549314   2.8529526 -17.0094602  -4.9269314
   2.5409526 -14.5594602 -13.9839314   1.9759526 -15.3224602 -14.1049314
   2.8539526 -14.3504602 -14.8649314 -22.4470474   1.3615398  -6.2249314
 -22.6970474   0.4535398  -6.3949314 -21.5500474   1.3065398  -5.8959314
  -4.4440474   2.2745398 -10.2949314  -4.0720474   3.0865398 -10.6369314
  -3.9950474   1.5815398 -10.7789314  -6.2020474 -14.5234602 -15.5969314
  -5.7130474 -14.0144602 -16.2439314  -6.1250474 -15.4294602 -15.8969314
 -17.2940474 -17.6134602  -1.5209314 -16.7800474 -18.1144602  -0.8889314
 -17.8000474 -18.2734602  -1.9959314   2.3869526 -15.9124602   0.2560686
   3.2619526 -16.2474602   0.0600686   2.0119526 -15.7054602  -0.5999314
 -12.4020474 -14.3944602   1.4310686 -11.5620474 -14.7364602   1.1230686
 -12.2810474 -14.2744602   2.3730686 -17.4790474 -12.6044602  -6.1369314
 -18.3650474 -12.6854602  -5.7849314 -17.5030474 -11.8064602  -6.6659314
   6.6229526 -20.8294602 -16.1069314   7.2859526 -20.7664602 -16.7939314
   6.2329526 -21.6954602 -16.2289314  -3.7890474 -10.2084602  -5.6469314
  -4.1790474 -10.1304602  -6.5179314  -4.1470474  -9.4694602  -5.1559314
 -21.6670474   3.8525398  -8.3939314 -21.0260474   3.2695398  -8.8009314
 -22.4690474   3.3325398  -8.3459314 -22.3510474 -18.0924602 -17.3769314
 -22.0060474 -17.5874602 -18.1129314 -23.2900474 -18.1594602 -17.5509314
   2.5429526   1.4715398 -13.1359314   3.2539526   1.0625398 -12.6419314
   2.9159526   1.6355398 -14.0019314  -3.0810474  -9.3674602 -14.6429314
  -2.6220474  -9.2074602 -13.8189314  -3.3550474  -8.4994602 -14.9379314
  -4.8930474 -14.5224602   7.7360686  -5.5840474 -14.9684602   8.2250686
  -4.8100474 -15.0244602   6.9250686   2.6509526 -10.3974602  -4.0079314
   2.2089526 -10.9324602  -3.3489314   1.9489526  -9.8874602  -4.4129314
 -21.2140474  -6.9664602 -13.8289314 -21.8360474  -7.0164602 -14.5559314
 -21.1480474  -7.8654602 -13.5079314   3.8329526 -17.9154602  -1.6209314
   3.5559526 -17.4464602  -2.4079314   3.1369526 -18.5524602  -1.4629314
  -1.2840474  -2.0424602 -18.2799314  -0.5060474  -2.4464602 -17.8969314
  -1.5240474  -1.3504602 -17.6639314  -3.0140474 -13.7464602   9.7510686
  -3.4540474 -14.0114602   8.9430686  -3.6360474 -13.9604602  10.4450686
   6.3079526   2.2365398 -13.6449314   6.4559526   2.7895398 -14.4119314
   6.5209526   1.3515398 -13.9419314  -1.6430474 -20.7734602 -10.8999314
  -1.5100474 -20.4294602 -10.0169314  -2.3180474 -21.4444602 -10.7959314
   1.2739526 -17.0994602   9.7920686   1.0099526 -16.5074602   9.0880686
   0.5249526 -17.1114602  10.3890686   4.1109526 -20.9144602   3.8730686
   3.2019526 -21.1564602   3.6940686   4.5489526 -21.7454602   4.0570686
   0.4529526 -16.4844602  -7.6679314   0.8549526 -15.6484602  -7.9059314
   1.1939526 -17.0644602  -7.4899314   2.0659526 -20.5004602   0.6300686
   1.7629526 -20.1324602  -0.1999314   1.5659526 -20.0314602   1.2980686
   3.4119526 -14.0364602   4.4590686   3.3919526 -14.7764602   5.0650686
   4.1949526 -13.5444602   4.7070686 -22.7360474  -9.6964602  -7.8769314
 -22.4690474  -9.9244602  -6.9869314 -22.0100474  -9.1764602  -8.2199314
   2.8269526  -2.3834602 -11.3029314   1.9399526  -2.4014602 -10.9439314
   3.2769526  -3.1054602 -10.8659314  -6.2560474 -11.9604602 -12.3829314
  -6.6240474 -12.4274602 -13.1339314  -5.3520474 -12.2684602 -12.3279314
  -4.5670474   4.2175398 -13.4399314  -4.0440474   3.4705398 -13.7319314
  -5.3130474   4.2365398 -14.0389314 -18.1170474   4.2835398 -14.2349314
 -18.5570474   5.1075398 -14.0229314 -18.8300474   3.6655398 -14.3949314
   0.3319526   1.6365398  -8.9909314   0.0609526   2.1955398  -9.7199314
  -0.3590474   0.9775398  -8.9259314 -22.8790474 -15.1944602 -12.1939314
 -23.4570474 -15.6354602 -12.8179314 -22.2010474 -14.7924602 -12.7379314
 -17.4990474 -19.8904602  -5.3819314 -16.5570474 -19.9834602  -5.5289314
 -17.7900474 -19.2844602  -6.0629314  -1.9310474 -10.1784602   8.6210686
  -1.4250474 -10.7904602   9.1550686  -1.4380474 -10.1094602   7.8030686
 -10.8690474 -17.7404602 -19.1739314 -11.4610474 -17.0174602 -19.3809314
 -10.1940474 -17.6994602 -19.8519314   1.5499526 -19.4424602  -1.9169314
   1.7879526 -19.3454602  -2.8389314   1.0099526 -20.2324602  -1.8899314
 -14.3600474 -17.1304602  -0.0549314 -13.7530474 -17.4334602   0.6210686
 -15.0950474 -17.7424602  -0.0079314   4.7639526 -14.2994602   9.0100686
   5.2829526 -13.5254602   8.7900686   4.6039526 -14.7294602   8.1700686
  -1.6760474 -19.7994602  -8.4329314  -1.8530474 -19.7814602  -7.4929314
  -1.8120474 -18.8964602  -8.7199314  -0.7930474 -15.3054602  -3.0219314
  -1.3340474 -14.7114602  -2.5019314  -1.2290474 -15.3454602  -3.8729314
  -5.8640474 -11.7524602  10.6120686  -5.9770474 -10.8154602  10.7670686
  -5.5500474 -11.8104602   9.7090686   5.0849526 -19.9854602 -10.1869314
   4.7589526 -20.7554602  -9.7219314   4.6759526 -20.0354602 -11.0509314
 -18.7250474  -2.2684602  -3.9209314 -19.6350474  -2.0704602  -4.1419314
 -18.6730474  -2.1364602  -2.9749314   1.6789526  -8.7254602  -1.4239314
   2.4209526  -9.2374602  -1.7469314   2.0789526  -8.0104602  -0.9279314
 -20.2140474 -17.4394602   2.3880686 -20.6040474 -17.9424602   1.6730686
 -19.9100474 -16.6314602   1.9730686   0.0619526   8.2415398 -12.8029314
  -0.5920474   8.5785398 -12.1909314   0.7339526   7.8495398 -12.2439314
   7.1219526 -12.1734602 -12.1359314   6.1859526 -12.2754602 -11.9639314
   7.2619526 -12.6184602 -12.9709314 -10.7700474 -14.0734602  -7.2609314
  -9.8300474 -14.0984602  -7.4399314 -10.9430474 -14.8794602  -6.7749314
  -0.6530474  -9.1674602  -7.9999314  -1.1580474  -8.3754602  -8.1839314
  -0.7020474  -9.6764602  -8.8089314   5.0839526 -12.5944602  -0.7699314
   5.9749526 -12.7424602  -0.4509314   4.5319526 -13.1214602  -0.1919314
 -20.2730474 -12.6024602 -10.8489314 -19.8500474 -12.4004602 -10.0139314
 -21.1390474 -12.2014602 -10.7819314 -20.9430474 -13.2774602  -1.0559314
 -20.0920474 -12.8734602  -0.8879314 -21.5010474 -12.9674602  -0.3429314
   4.5939526 -15.5714602  -6.8069314   4.7249526 -16.3964602  -7.2749314
   4.5229526 -14.9124602  -7.4979314 -16.8440474 -18.0244602 -16.1479314
 -17.1970474 -17.1604602 -15.9339314 -17.5340474 -18.4434602 -16.6629314
  -2.7470474 -18.2804602 -12.3089314  -2.1210474 -18.8464602 -11.8559314
  -3.4810474 -18.1994602 -11.7009314  -6.0620474   8.1325398  -8.8629314
  -6.5890474   7.5465398  -8.3199314  -6.6310474   8.3555398  -9.5989314
 -17.0230474 -11.2484602 -14.1189314 -17.2740474 -10.6924602 -13.3809314
 -17.0370474 -10.6634602 -14.8759314  -0.8590474   6.3185398   1.8950686
  -0.6180474   5.7835398   1.1390686  -0.5020474   7.1855398   1.6990686
  -6.9580474  -5.5844602 -18.8079314  -7.8400474  -5.9224602 -18.6549314
  -6.5190474  -6.2764602 -19.3029314  -0.7450474 -13.7614602 -10.8479314
   0.1689526 -14.0454602 -10.8799314  -0.7820474 -13.0054602 -11.4339314
   1.4769526 -10.6314602 -12.2449314   1.7849526 -10.1844602 -11.4569314
   2.1889526 -10.5234602 -12.8759314  -5.7300474   2.9565398  -7.8889314
  -5.7760474   2.5625398  -8.7599314  -5.0330474   3.6095398  -7.9569314
   4.2009526 -13.6064602  -8.7239314   3.7599526 -12.8694602  -8.3009314
   4.3759526 -13.3014602  -9.6149314   1.5209526 -13.2964602 -19.3169314
   2.0899526 -12.6964602 -19.7989314   2.0399526 -13.5604602 -18.5569314
  -2.4640474 -15.8044602 -13.5319314  -2.2200474 -16.5904602 -13.0439314
  -1.6290474 -15.4294602 -13.8149314 -18.8110474  -4.2954602   1.4210686
 -19.3520474  -3.8994602   0.7380686 -18.1250474  -3.6484602   1.5890686
   0.1309526   4.1695398 -11.7349314  -0.6930474   4.5855398 -11.9879314
   0.1489526   3.3505398 -12.2299314  -7.8390474 -18.4194602  -7.5099314
  -6.9790474 -18.8274602  -7.6129314  -8.3330474 -19.0334602  -6.9659314
 -21.6550474 -14.7184602  -5.3199314 -22.5430474 -14.7914602  -4.9729314
 -21.3620474 -13.8484602  -5.0499314 -21.7060474  -3.1974602 -11.3239314
 -21.1230474  -3.0694602 -10.5749314 -22.4960474  -3.5874602 -10.9499314
 -12.0590474  -3.4864602   1.0810686 -11.3930474  -3.6524602   0.4140686
 -12.2170474  -4.3414602   1.4810686   2.4189526  -8.0264602  -7.9019314
   2.1229526  -7.2984602  -7.3559314   3.2089526  -8.3464602  -7.4659314
   1.8779526 -19.4144602 -13.5839314   1.2739526 -20.1574602 -13.5709314
   2.7479526 -19.8134602 -13.5789314  -3.4920474  -6.3614602  -3.3899314
  -2.6770474  -6.8564602  -3.4769314  -3.2100474  -5.4754602  -3.1619314
   4.8559526  -7.9304602 -15.6359314   4.8289526  -7.6874602 -14.7109314
   4.9909526  -7.1024602 -16.0979314 -17.7410474  -7.0104602  -3.1049314
 -17.0690474  -7.0924602  -2.4289314 -18.4900474  -6.6214602  -2.6539314
   1.5949526 -17.7434602 -11.1459314   1.7559526 -18.4034602 -11.8199314
   2.4589526 -17.5664602 -10.7719314   4.9819526  -5.5694602 -17.6689314
   4.1529526  -6.0344602 -17.7879314   5.3599526  -5.5254602 -18.5469314
  -1.4890474 -15.5704602  -5.7569314  -2.1650474 -15.0754602  -6.2199314
  -0.8710474 -15.8294602  -6.4409314 -18.5040474 -10.6594602 -18.4349314
 -19.2100474 -10.0864602 -18.1359314 -17.7860474 -10.4954602 -17.8229314
  -4.9610474  -4.3544602  -8.1869314  -5.0040474  -5.2904602  -8.3839314
  -4.0920474  -4.2314602  -7.8029314   2.5709526  -9.5654602 -10.0769314
   2.2099526  -9.0174602  -9.3799314   3.3699526  -9.9354602  -9.7019314
   4.3279526 -16.5594602 -11.4219314   4.4809526 -15.6384602 -11.2089314
   4.6509526 -16.6544602 -12.3179314   1.2289526 -12.5584602   4.8930686
   0.5529526 -13.0994602   4.4860686   2.0109526 -13.1104602   4.8930686
  -6.1240474  -3.1084602 -17.8019314  -6.1880474  -3.9994602 -18.1459314
  -5.4970474  -2.6734602 -18.3789314   0.3489526 -21.0604602  -5.2579314
   0.7939526 -21.7674602  -5.7249314   1.0389526 -20.4244602  -5.0709314
 -14.3960474  -2.6044602 -14.7889314 -14.4650474  -3.5344602 -14.5729314
 -15.0360474  -2.4724602 -15.4879314 -21.9950474  -9.3314602 -15.9699314
 -22.1430474  -8.6694602 -16.6449314 -22.6650474  -9.9954602 -16.1339314
  -6.6480474 -15.8664602  -7.6779314  -5.7540474 -16.1764602  -7.5379314
  -7.1830474 -16.6594602  -7.6569314   2.3509526 -19.0074602  -4.3329314
   3.2499526 -19.3314602  -4.2689314   2.2029526 -18.8944602  -5.2719314
   3.1269526 -11.7594602  -7.0619314   3.4429526 -12.4274602  -6.4529314
   2.1899526 -11.6914602  -6.8779314   0.1109526 -13.0954602 -15.9779314
   0.3049526 -12.1594602 -16.0329314   0.5279526 -13.3794602 -15.1639314
  -4.5130474 -19.7624602 -14.9759314  -4.7380474 -20.4974602 -14.4059314
  -3.5570474 -19.7224602 -14.9489314   5.0789526 -12.3164602   5.9360686
   5.6699526 -12.2654602   6.6870686   4.5659526 -11.5094602   5.9790686
   6.4979526  -1.0644602  -6.9999314   5.6059526  -1.0564602  -6.6529314
   6.3859526  -1.0784602  -7.9499314  -3.0000474 -13.1624602  -9.4169314
  -3.0000474 -12.2784602  -9.7839314  -2.2960474 -13.6144602  -9.8799314
  -0.2180474 -10.1594602   6.6690686  -0.1460474 -10.9734602   6.1700686
   0.6739526  -9.9814602   6.9680686  -0.5670474  -3.7064602  -5.7549314
  -0.4310474  -2.9724602  -5.1569314  -1.4140474  -3.5294602  -6.1649314
 -21.9310474  -9.7454602 -13.0169314 -22.1040474  -9.9604602 -13.9339314
 -22.0720474 -10.5674602 -12.5469314  -4.3650474 -15.2944602 -10.5369314
  -4.2230474 -15.2244602 -11.4809314  -4.0510474 -14.4624602 -10.1839314
  -5.3270474 -19.4124602  -7.7839314  -5.3740474 -19.6044602  -6.8469314
  -5.4680474 -20.2574602  -8.2089314   0.1779526 -15.4844602 -17.1969314
   0.2079526 -14.5664602 -16.9279314  -0.3330474 -15.4814602 -18.0059314
  -3.4800474   7.4885398 -18.6139314  -2.5230474   7.4805398 -18.6199314
  -3.7200474   6.9685398 -17.8469314   0.1829526 -16.9484602   7.1340686
   0.8829526 -17.3764602   6.6420686  -0.4540474 -16.6884602   6.4690686
   7.0899526 -18.2174602 -10.7479314   6.3779526 -18.8424602 -10.6109314
   6.7139526 -17.3694602 -10.5139314 -14.9870474 -20.6004602 -12.4219314
 -14.5240474 -20.1254602 -11.7319314 -15.2980474 -19.9174602 -13.0159314
   3.1529526 -15.3274602 -16.6099314   3.8659526 -15.0534602 -17.1869314
   2.5659526 -15.8284602 -17.1759314   2.5019526  -0.7144602 -17.9509314
   2.5899526  -0.5294602 -18.8859314   3.3139526  -1.1644602 -17.7179314
   5.4559526 -16.0624602  -0.1819314   5.8939526 -15.5364602  -0.8509314
   5.1499526 -16.8394602  -0.6499314  -9.2040474 -20.7214602   9.3110686
 -10.1010474 -20.8544602   9.6160686  -8.6650474 -20.8374602  10.0940686
  -1.9680474 -17.1454602  -1.7279314  -2.3280474 -17.6234602  -2.4749314
  -1.3860474 -16.4934602  -2.1189314   6.4949526 -11.7524602 -18.2669314
   6.8729526 -11.9124602 -19.1309314   5.9779526 -12.5374602 -18.0819314
 -20.3070474  -5.1444602   8.1220686 -20.5410474  -5.4874602   7.2600686
 -19.3750474  -5.3444602   8.2150686 -21.9340474  -7.6064602   7.3130686
 -21.6320474  -7.5194602   8.2170686 -21.1660474  -7.9144602   6.8320686
   1.2029526 -19.7944602   8.6320686   1.8709526 -20.0994602   8.0180686
   1.4959526 -18.9204602   8.8900686  -1.1460474  -8.1684602 -17.0989314
  -1.1360474  -7.8224602 -17.9909314  -1.9540474  -8.6794602 -17.0489314
 -22.2270474 -17.0484602   7.0970686 -22.0880474 -17.1944602   6.1620686
 -22.0330474 -16.1204602   7.2270686   5.1209526   4.2405398 -19.2819314
   4.7419526   4.8545398 -19.9119314   5.8809526   4.7015398 -18.9269314
 -19.9930474 -11.2734602   3.4370686 -20.5840474 -10.7054602   2.9420686
 -19.4100474 -10.6694602   3.8970686  -1.7160474 -16.5294602   4.9250686
  -2.5600474 -16.2654602   5.2900686  -1.6540474 -17.4654602   5.1150686
   3.6339526 -15.9504602   6.4560686   2.9109526 -16.5634602   6.3230686
   4.4129526 -16.4354602   6.1830686   5.8499526   6.6545398 -16.4349314
   5.9659526   5.7555398 -16.1269314   6.5679526   6.7925398 -17.0519314
 -20.2610474 -14.4574602   3.8470686 -19.9940474 -13.6454602   3.4150686
 -20.8060474 -14.9054602   3.1990686  -0.4770474   2.9415398 -18.6639314
  -1.2530474   2.8695398 -18.1079314  -0.4040474   2.0855398 -19.0859314
   4.0989526 -13.7754602   1.4270686   4.2539526 -13.9624602   2.3530686
   3.2649526 -14.2044602   1.2330686 -19.6750474  -2.8314602   5.3080686
 -20.3000474  -3.5554602   5.3320686 -18.8270474  -3.2384602   5.4850686
 -17.7270474  -6.2844602   9.2480686 -17.6600474  -6.8834602   8.5050686
 -16.8190474  -6.1124602   9.4990686  -3.3530474  -2.2704602 -14.6909314
  -3.0820474  -3.0284602 -15.2079314  -3.3380474  -1.5404602 -15.3099314
   4.0299526 -10.9584602 -13.9349314   4.3869526 -10.0934602 -13.7369314
   4.6329526 -11.3244602 -14.5829314  -0.7230474 -14.1804602   3.7510686
  -0.2770474 -14.2994602   2.9130686  -0.9250474 -15.0694602   4.0440686
 -21.1960474 -16.7814602 -15.2559314 -21.5170474 -17.1984602 -16.0559314
 -21.8240474 -17.0404602 -14.5819314   3.8019526   7.3645398 -18.2589314
   4.6219526   7.0135398 -17.9119314   3.4219526   7.8535398 -17.5289314
 -16.7480474   0.0015398   5.8960686 -16.2870474   0.7795398   5.5830686
 -16.1090474  -0.7064602   5.8100686   1.2659526  -3.0204602 -17.7169314
   1.6239526  -2.1554602 -17.9179314   1.9179526  -3.4224602 -17.1419314
   4.9789526 -18.5904602 -18.6939314   4.2289526 -19.1634602 -18.5329314
   4.6609526 -17.7134602 -18.4829314  -5.3210474 -15.5844602   2.3820686
  -4.9830474 -16.4784602   2.4320686  -4.6700474 -15.1094602   1.8650686
  -4.2770474 -17.7364602   8.2160686  -3.4640474 -18.2344602   8.1310686
  -4.3240474 -17.5094602   9.1450686  -2.8420474 -14.9274602   1.1940686
  -2.4990474 -15.7894602   0.9590686  -2.0630474 -14.3924602   1.3460686
   6.5039526 -18.3634602  -3.4109314   6.3269526 -19.1444602  -2.8859314
   5.9969526 -17.6704602  -2.9869314  -5.0300474 -13.9044602   4.6390686
  -5.1520474 -14.8534602   4.6090686  -5.8940474 -13.5584602   4.8650686
   6.9399526 -18.9354602   9.2250686   6.4019526 -18.6054602   9.9440686
   6.8099526 -18.3034602   8.5180686   1.0909526 -16.8224602 -14.4119314
   0.9749526 -17.0064602 -15.3439314   1.3379526 -17.6644602 -14.0299314
   5.7879526 -16.5484602   4.4900686   6.3189526 -15.8644602   4.8990686
   6.3609526 -17.3144602   4.4650686 -20.3930474 -17.7384602   9.5110686
 -20.5700474 -16.7994602   9.5540686 -20.9050474 -18.0464602   8.7630686
 -13.0200474  -9.7234602  -2.3039314 -12.7090474 -10.3054602  -1.6109314
 -12.7870474 -10.1734602  -3.1169314 -20.6560474  -5.5674602   5.2290686
 -21.4170474  -6.0604602   4.9240686 -19.9030474  -6.0774602   4.9300686
  -2.9070474 -12.3254602   3.9260686  -2.1090474 -12.8534602   3.9730686
  -3.6060474 -12.9244602   4.1900686   0.6959526  -8.8084602  -5.2899314
   0.3969526  -8.9014602  -6.1939314   0.9559526  -7.8904602  -5.2159314
   0.1869526 -14.4354602   1.2490686   0.6619526 -13.7394602   0.7950686
   0.6729526 -15.2334602   1.0390686 -22.7890474 -14.3554602   5.5530686
 -21.9090474 -14.2214602   5.1990686 -23.2320474 -13.5174602   5.4180686
  -1.6270474 -17.3164602  -9.2459314  -0.7390474 -17.0984602  -8.9629314
  -1.9530474 -16.5124602  -9.6519314 -17.6320474  -9.9734602 -11.9349314
 -18.0650474 -10.6064602 -11.3609314 -17.3350474  -9.2804602 -11.3459314
 -16.8580474 -15.4904602  -6.4929314 -16.1480474 -15.6034602  -7.1249314
 -16.9300474 -14.5434602  -6.3789314 -22.4010474 -11.7634602  -5.5849314
 -23.0830474 -11.7484602  -4.9129314 -22.6850474 -12.4404602  -6.1999314
  -0.9030474  -7.5824602  -3.3649314  -0.2620474  -8.1504602  -3.7929314
  -0.4200474  -7.1784602  -2.6439314 -19.7730474  -5.6204602  -2.0409314
 -19.6220474  -4.7934602  -1.5839314 -20.5860474  -5.4814602  -2.5269314
   1.2039526 -17.8134602   1.6400686   1.6779526 -17.0534602   1.3010686
   1.6319526 -18.0104602   2.4730686 -23.0360474 -12.3014602   7.9670686
 -22.4700474 -12.0324602   7.2430686 -22.4570474 -12.7804602   8.5600686
  -9.1680474 -15.0764602  -3.8439314  -8.6650474 -14.6814602  -4.5559314
  -9.4820474 -14.3314602  -3.3309314 -18.9960474  -7.2134602   0.6130686
 -19.5860474  -6.4834602   0.7980686 -19.0400474  -7.3224602  -0.3369314
  -3.5570474 -12.4344602   0.4820686  -3.9400474 -11.6314602   0.8350686
  -3.7980474 -13.1134602   1.1130686  -5.6940474 -19.2874602  -5.2199314
  -5.4530474 -19.8454602  -4.4799314  -5.9140474 -18.4444602  -4.8229314
 -17.4490474  -7.2124602   6.6540686 -18.0590474  -7.8474602   6.2770686
 -16.6420474  -7.7074602   6.7910686 -16.7340474 -17.8834602   4.3780686
 -15.8780474 -18.0954602   4.7510686 -17.2830474 -17.6844602   5.1360686
 -22.2590474  -7.4054602   4.0420686 -23.1980474  -7.5814602   4.0980686
 -21.9290474  -8.0584602   3.4250686 -20.8560474  -9.0244602   2.1890686
 -20.1320474  -8.4804602   1.8800686 -21.5910474  -8.7904602   1.6230686
   4.5639526 -13.2334602 -12.1059314   4.1689526 -12.4734602 -12.5339314
   4.5429526 -13.9204602 -12.7719314 -18.2710474 -13.3234602 -19.1219314
 -18.3600474 -12.3874602 -18.9429314 -17.3300474 -13.4894602 -19.0669314
 -19.3310474 -16.2354602  -4.7599314 -18.6230474 -15.7824602  -5.2189314
 -20.0630474 -15.6184602  -4.7789314  -8.5420474 -12.9344602   1.0080686
  -8.4830474 -11.9824602   1.0850686  -8.5120474 -13.1014602   0.0660686
 -20.4760474   7.9185398   1.8390686 -21.1430474   7.2335398   1.8210686
 -20.7660474   8.5535398   1.1840686 -21.2000474 -16.9704602  -2.1209314
 -21.6420474 -17.4164602  -2.8439314 -21.8290474 -16.3124602  -1.8249314
 -19.1240474 -18.3904602 -13.9419314 -18.1700474 -18.3134602 -13.9089314
 -19.4070474 -17.6454602 -14.4719314  -0.6000474 -11.1734602   2.2810686
  -1.1890474 -10.4234602   2.1910686  -1.1470474 -11.8634602   2.6580686
  -4.3940474   4.1715398 -18.7659314  -4.2970474   5.0735398 -18.4599314
  -3.7130474   4.0705398 -19.4319314   1.4099526  -6.2114602  -6.0499314
   0.8279526  -5.4824602  -6.2629314   1.9719526  -5.8734602  -5.3519314
  -0.3630474  -5.9524602 -15.1949314  -1.0210474  -5.4414602 -15.6669314
  -0.4200474  -6.8284602 -15.5759314  -3.3560474 -21.4704602  -2.2459314
  -3.0580474 -21.1804602  -3.1079314  -4.2300474 -21.0924602  -2.1539314
  -0.9390474   8.2015398 -15.1929314  -1.4180474   9.0235398 -15.0969314
  -0.6170474   8.0065398 -14.3129314  -3.1320474   2.4685398  -5.9229314
  -2.6320474   2.6115398  -6.7269314  -2.5300474   1.9975398  -5.3469314
  -6.6730474 -18.9364602 -12.4469314  -6.4120474 -19.8124602 -12.7299314
  -5.8530474 -18.5094602 -12.2009314  -5.0550474 -17.8804602 -10.6599314
  -4.8880474 -16.9504602 -10.5039314  -5.2150474 -18.2454602  -9.7899314
  -2.5810474   2.5785398 -16.6589314  -3.3050474   3.0675398 -17.0479314
  -2.6600474   2.7405398 -15.7189314  -1.2110474 -21.5174602  -0.0769314
  -0.5990474 -21.7314602  -0.7819314  -1.9540474 -21.1084602  -0.5209314
   4.2389526  -0.1144602 -11.3569314   4.1069526   0.4695398 -10.6099314
   3.4559526  -0.6644602 -11.3739314  -1.7960474 -19.4184602 -14.7439314
  -1.7990474 -18.8694602 -13.9589314  -1.3490474 -18.8894602 -15.4049314
  -0.9020474 -11.3894602  -3.2629314  -0.9270474 -11.2104602  -4.2039314
  -0.0220474 -11.7344602  -3.1079314  -6.3010474  -3.4384602  -6.1279314
  -6.1810474  -4.0284602  -6.8719314  -5.4630474  -2.9854602  -6.0439314
   4.9539526  -4.0974602 -10.1219314   4.8369526  -4.2314602  -9.1819314
   5.3979526  -3.2514602 -10.1899314 -21.8770474   4.0745398  -5.5119314
 -22.7010474   3.7105398  -5.1899314 -21.6790474   3.5625398  -6.2959314
 -20.9760474   8.1585398  -0.8409314 -20.6630474   7.2545398  -0.8279314
 -21.3990474   8.2535398  -1.6949314 -21.7540474  -3.0684602   0.5570686
 -22.6390474  -2.7484602   0.3830686 -21.8750474  -3.9834602   0.8120686
 -20.8300474   6.8045398 -15.9749314 -21.2620474   7.2455398 -16.7059314
 -20.4430474   7.5145398 -15.4619314  -5.4510474  -1.9144602 -12.5499314
  -6.3390474  -2.2594602 -12.4559314  -5.1890474  -2.1654602 -13.4359314
   3.7649526  -3.9654602  -5.9239314   3.3689526  -3.7454602  -5.0799314
   3.9019526  -4.9124602  -5.8839314  -2.9780474   2.0175398 -14.0309314
  -3.4510474   1.1855398 -14.0139314  -2.0640474   1.7765398 -13.8799314
   0.1339526   0.0965398  -5.9919314  -0.3410474   0.0805398  -6.8229314
   1.0419526  -0.0894602  -6.2309314  -1.3840474   5.4945398 -15.5489314
  -1.0770474   5.1735398 -16.3969314  -1.1090474   6.4115398 -15.5259314
  -0.3440474   1.6535398 -13.2339314  -0.3960474   0.8695398 -12.6869314
   0.5739526   1.7005398 -13.5009314 -20.1740474   1.7125398   2.2210686
 -20.0210474   2.0815398   1.3520686 -20.3630474   2.4705398   2.7740686
   2.3189526 -18.2824602  -7.0729314   1.9459526 -18.8894602  -7.7119314
   3.1749526 -18.0504602  -7.4329314 -19.8570474   5.2385398  -3.9109314
 -20.4980474   4.7645398  -4.4399314 -19.7940474   6.0995398  -4.3239314
   1.2019526   0.2965398 -15.7479314   1.8469526   0.9195398 -15.4139314
   1.5269526   0.0555398 -16.6149314   2.4129526  -5.0094602 -15.7529314
   2.5199526  -5.6654602 -16.4419314   1.5789526  -5.2314602 -15.3379314
 -21.7020474   2.8495398   9.4930686 -22.1580474   2.0595398   9.7820686
 -20.7910474   2.5755398   9.3850686  -1.4130474  -3.8524602 -10.4919314
  -2.2230474  -3.5644602 -10.0709314  -1.7030474  -4.3594602 -11.2499314
  -1.6010474  -0.2314602  -8.5759314  -2.5380474  -0.1484602  -8.3989314
  -1.5540474  -0.6074602  -9.4549314  -0.1420474  -2.2174602  -2.1039314
  -0.6090474  -1.4664602  -2.4719314   0.5159526  -1.8304602  -1.5259314
  -3.1970474   0.0105398 -11.8919314  -3.7920474  -0.6574602 -12.2329314
  -2.3990474  -0.4694602 -11.6729314   0.7939526  -3.7814602  -8.9699314
   1.2429526  -4.5954602  -9.1969314   0.0429526  -3.7494602  -9.5629314
   4.5609526   4.3065398 -12.9759314   4.8479526   3.4035398 -12.8459314
   4.4859526   4.4005398 -13.9259314  -5.8850474   1.1805398  -1.8139314
  -6.0290474   0.4855398  -2.4569314  -6.1340474   1.9845398  -2.2689314
   2.6059526 -19.3884602 -17.2089314   1.7869526 -18.8954602 -17.2539314
   2.3689526 -20.2104602 -16.7799314   4.9279526  -5.0514602 -14.5219314
   4.2549526  -5.0844602 -15.2019314   5.3169526  -4.1804602 -14.6109314
  -4.7480474 -10.0814602  -1.3519314  -4.7970474  -9.8404602  -0.4269314
  -3.8820474  -9.7844602  -1.6309314 -11.1150474 -17.3484602  -4.0169314
 -11.8520474 -17.1424602  -3.4409314 -10.4130474 -16.7674602  -3.7249314
   1.7179526   8.1835398 -16.2179314   0.7709526   8.0705398 -16.1419314
   2.0719526   7.7745398 -15.4279314   1.2449526   6.9395398 -10.8119314
   2.0769526   6.4665398 -10.7969314   0.6139526   6.3265398 -10.4349314
   4.7199526   6.8135398 -11.8969314   4.6569526   5.8615398 -11.9779314
   4.6449526   6.9785398 -10.9569314   5.7329526   1.8875398 -17.3509314
   6.6369526   2.1925398 -17.2829314   5.3199526   2.4945398 -17.9649314
  -4.8080474   7.8045398  -5.6339314  -4.0850474   8.4275398  -5.5659314
  -4.3890474   6.9735398  -5.8559314 -22.0270474  -5.6364602   1.5130686
 -21.8900474  -5.8824602   2.4280686 -22.8670474  -6.0334602   1.2810686
 -15.7760474   2.1005398  -1.9659314 -15.9500474   2.9125398  -2.4399314
 -15.4270474   1.5045398  -2.6289314 -18.0970474  -0.9244602   0.8510686
 -18.0110474   0.0035398   1.0690686 -18.0230474  -1.3764602   1.6910686
  -7.4490474   1.9325398 -16.4469314  -6.9660474   1.7505398 -17.2529314
  -7.5440474   1.0775398 -16.0269314  -9.3990474   6.3895398  -4.1199314
  -8.4630474   6.3205398  -3.9329314  -9.6460474   5.5205398  -4.4359314
   2.2569526   3.6295398 -17.6719314   1.3459526   3.3385398 -17.6559314
   2.4779526   3.6755398 -18.6019314  -1.7560474   5.6365398 -12.9349314
  -1.4910474   5.4095398 -13.8259314  -1.3740474   6.5005398 -12.7829314
  -6.8630474 -16.9654602  -3.7119314  -6.8290474 -17.0194602  -2.7569314
  -7.4570474 -16.2354602  -3.8889314 -20.0300474   5.9335398  -7.2159314
 -20.8860474   5.5085398  -7.2679314 -19.6420474   5.8005398  -8.0799314
   5.7819526  -2.3284602 -15.6209314   6.6499526  -2.7064602 -15.7659314
   5.2519526  -2.6614602 -16.3449314   4.4099526  -2.6394602 -17.9409314
   4.9029526  -2.3544602 -18.7109314   4.4369526  -3.5954602 -17.9789314
 -22.7390474   4.3425398 -15.8409314 -22.3070474   3.8005398 -16.5019314
 -22.0660474   4.9635398 -15.5629314  -1.0030474  -1.2644602 -11.1969314
  -1.1180474  -2.2084602 -11.0939314  -0.4980474  -1.1704602 -12.0039314
  -2.0890474   4.2525398  -7.9369314  -2.3060474   4.4155398  -8.8549314
  -2.1140474   5.1165398  -7.5269314   4.4469526 -20.3494602 -13.2159314
   4.7209526 -19.8664602 -13.9959314   5.1039526 -21.0384602 -13.1169314
  -4.4170474  -0.6364602  -8.1429314  -4.6200474  -1.2664602  -8.8339314
  -5.0390474   0.0775398  -8.2779314   4.6829526   7.3935398  -9.0449314
   4.5419526   7.8415398  -8.2109314   5.5919526   7.0975398  -9.0089314
 -13.0120474   6.7945398  -1.9149314 -12.3620474   6.0935398  -1.9619314
 -13.8490474   6.3575398  -2.0729314 -22.2870474   3.5555398   0.3430686
 -21.3590474   3.3385398   0.4300686 -22.3190474   4.1865398  -0.3749314
 -10.6400474  -5.1044602   9.2930686  -9.9590474  -4.4324602   9.3230686
 -10.4560474  -5.5974602   8.4930686   6.5949526 -11.9204602 -15.5439314
   6.3269526 -12.0884602 -16.4469314   7.4289526 -12.3804602 -15.4509314
 -21.9890474   8.4295398  -9.5349314 -21.4910474   7.8685398 -10.1309314
 -22.8320474   8.5535398  -9.9709314 -22.7810474 -21.2504602 -13.3389314
 -22.7760474 -21.3224602 -14.2939314 -22.2360474 -21.9784602 -13.0409314
  -2.8040474   4.7845398 -10.5259314  -2.5270474   4.8395398 -11.4399314
  -3.0310474   5.6835398 -10.2889314  -5.1070474 -20.0314602 -17.4679314
  -5.0920474 -20.2214602 -16.5299314  -4.9140474 -20.8714602 -17.8859314
  -1.6250474  -0.0884602 -16.2799314  -0.7190474   0.0725398 -16.0169314
  -1.9810474   0.7815398 -16.4569314   1.9239526  -3.3944602  -3.9529314
   2.2079526  -4.2544602  -3.6449314   1.3529526  -3.0674602  -3.2579314
   3.0299526   1.5475398  -9.3089314   2.1309526   1.3695398  -9.0339314
   2.9679526   2.3495398  -9.8279314 -15.0640474 -16.8754602   9.3480686
 -14.6890474 -16.7904602  10.2240686 -15.5470474 -17.7014602   9.3720686
 -22.3590474   1.5035398 -11.0969314 -22.7240474   1.9085398 -11.8829314
 -23.0530474   1.5815398 -10.4419314  -1.8180474 -18.6824602   8.2350686
  -1.2810474 -19.2634602   8.7740686  -1.2040474 -18.0264602   7.9040686
  -3.8160474   3.7265398  -1.8519314  -4.0650474   3.9915398  -0.9669314
  -4.3910474   2.9875398  -2.0519314  -3.1210474   5.7835398   3.8100686
  -2.3710474   5.6135398   3.2400686  -3.3070474   6.7155398   3.6890686
   3.1689526   7.1265398 -14.1559314   3.6079526   7.4165398 -13.3559314
   3.6209526   6.3175398 -14.3969314  -0.9110474   6.0175398 -18.4649314
   0.0139526   6.0825398 -18.7019314  -1.1820474   5.1595398 -18.7919314
  -5.2970474  -0.7844602 -16.2589314  -5.4950474  -1.6354602 -16.6509314
  -5.1370474  -0.2084602 -17.0059314  -3.7260474   0.8625398  -0.1099314
  -4.0340474   0.5225398   0.7300686  -4.5140474   0.9175398  -0.6499314
   6.4229526  -1.4224602  -9.8719314   7.2289526  -1.0214602 -10.1979314
   5.8029526  -1.3344602 -10.5959314   6.8289526 -20.2794602   3.2440686
   7.0619526 -20.9314602   2.5830686   5.8869526 -20.3944602   3.3730686
 -21.4260474  -1.0164602   6.6380686 -20.9190474  -1.6454602   6.1240686
 -22.0320474  -0.6254602   6.0080686   3.7179526 -16.3604602  10.6730686
   2.8939526 -16.7574602  10.3910686   3.7129526 -15.4904602  10.2740686
 -20.0670474   4.1825398   3.6660686 -19.1410474   3.9675398   3.5510686
 -20.0620474   5.0385398   4.0950686   3.2069526 -20.8524602   7.0560686
   2.9769526 -21.4414602   6.3380686   3.9999526 -21.2324602   7.4340686
 -19.1140474 -18.8894602 -17.9469314 -19.7510474 -18.4314602 -18.4959314
 -19.6410474 -19.4754602 -17.4049314  -2.1720474 -17.6274602   0.7640686
  -2.0470474 -17.5774602  -0.1829314  -1.3010474 -17.4764602   1.1300686
  -6.0740474 -20.3194602   7.6070686  -5.4340474 -20.9344602   7.9670686
  -5.7870474 -19.4624602   7.9220686   3.2479526   4.8745398 -15.5739314
   2.7569526   5.6835398 -15.4309314   2.8999526   4.5255398 -16.3939314
  -5.8700474   6.8825398   5.3350686  -5.3290474   6.9765398   6.1190686
  -5.7350474   5.9765398   5.0580686   0.7099526   3.4235398   2.5930686
  -0.0580474   3.0695398   2.1440686   1.2399526   3.8085398   1.8950686
  -1.6570474   1.9875398   1.3050686  -2.3920474   1.5525398   0.8740686
  -2.0540474   2.4635398   2.0340686 -19.7370474   8.1685398   4.3820686
 -20.0150474   7.9705398   3.4880686 -19.3010474   9.0185398   4.3160686
   1.5119526 -12.1134602   0.6330686   2.3429526 -11.8984602   1.0570686
   0.8439526 -11.7724602   1.2280686 -20.2060474  -0.3684602 -18.9479314
 -21.0470474   0.0895398 -18.9389314 -20.0200474  -0.5084602 -19.8769314
  -4.3360474   5.0435398   0.4960686  -3.5130474   5.4765398   0.7220686
  -4.9750474   5.4085398   1.1070686   1.0479526 -19.8624602   3.8790686
   0.1739526 -19.5834602   4.1540686   1.0909526 -20.7884602   4.1180686
   0.6829526  -1.0834602 -13.3799314   1.5449526  -1.4824602 -13.2609314
   0.7139526  -0.6994602 -14.2559314  -1.8910474   0.4265398  -2.1369314
  -2.2690474   0.5315398  -1.2629314  -1.4530474   1.2595398  -2.3109314
   6.4479526 -15.0634602   2.2590686   6.0589526 -15.3584602   1.4360686
   6.1159526 -15.6764602   2.9150686 -17.8710474  -1.2694602   3.8350686
 -17.4770474  -0.7234602   4.5150686 -18.6770474  -1.6014602   4.2310686
  -0.5940474 -20.9264602 -19.4629314  -0.0610474 -21.2034602 -18.7179314
   0.0419526 -20.7124602 -20.1459314 -20.8460474 -19.0874602   0.1570686
 -20.8740474 -18.4284602  -0.5369314 -21.5180474 -19.7234602  -0.0879314
  -6.8820474   7.7305398  -0.8929314  -7.8190474   7.6435398  -1.0699314
  -6.7740474   7.3955398  -0.0029314  -2.5240474   2.6785398   3.7210686
  -2.8270474   3.5775398   3.8470686  -3.0710474   2.1565398   4.3080686
 -22.0410474 -15.3124602 -18.5779314 -21.7120474 -14.8584602 -19.3539314
 -21.2970474 -15.3314602 -17.9769314 -18.3470474   4.3325398   6.4910686
 -19.2820474   4.4985398   6.6080686 -18.2090474   3.4615398   6.8650686
 -12.9090474   4.7035398   2.4860686 -12.0820474   4.2325398   2.5910686
 -12.6490474   5.6155398   2.3500686  -9.7960474   7.7175398  -1.3789314
  -9.4890474   7.1285398  -2.0679314 -10.5650474   8.1455398  -1.7549314
 -18.7890474  -7.8544602  24.2780686 -18.8890474  -7.1054602  24.8650686
 -18.2440474  -8.4714602  24.7660686  -1.6220474 -16.2664602  40.4480686
  -2.3690474 -16.5754602  40.9610686  -1.9900474 -15.6034602  39.8640686
 -15.9460474   5.7445398  14.6500686 -16.6510474   5.1875398  14.9800686
 -15.9210474   6.4835398  15.2580686  -1.7850474 -20.3804602  32.2520686
  -1.9450474 -21.2294602  31.8400686  -1.2750474 -19.8914602  31.6060686
 -16.1990474  -2.8194602  31.9870686 -16.5260474  -2.1644602  32.6050686
 -15.2570474  -2.6564602  31.9420686 -11.0250474  -9.5614602  22.5980686
 -11.6200474 -10.2844602  22.7970686 -10.1530474  -9.9534602  22.6260686
 -17.0310474 -14.5604602  19.2180686 -17.4960474 -15.3574602  18.9650686
 -17.0070474 -14.0334602  18.4190686 -22.2740474  -7.4564602  19.0530686
 -23.0970474  -7.1364602  18.6810686 -22.0010474  -8.1574602  18.4620686
 -13.8460474 -12.8474602  28.3430686 -14.4520474 -13.2804602  28.9450686
 -13.5160474 -13.5534602  27.7870686 -11.6840474 -10.1814602  16.2210686
 -12.2680474  -9.7314602  16.8310686 -11.2310474 -10.8324602  16.7570686
  -5.4430474  -6.3024602  28.4250686  -4.9620474  -6.3854602  29.2490686
  -4.7780474  -6.4214602  27.7470686 -17.2950474  -7.8434602  19.4670686
 -17.1450474  -7.8124602  20.4120686 -18.1560474  -7.4434602  19.3470686
 -20.3770474 -14.3664602  39.3640686 -19.6360474 -13.9544602  39.8100686
 -20.0470474 -14.5694602  38.4890686   5.1269526 -15.9664602  16.0660686
   4.1869526 -15.8464602  15.9300686   5.3059526 -16.8504602  15.7470686
 -12.2250474  -5.5454602  17.1820686 -11.7760474  -4.7044602  17.2660686
 -13.0330474  -5.4364602  17.6840686  -4.4780474 -16.6724602  35.5630686
  -4.7950474 -17.0154602  36.3980686  -4.5380474 -17.4134602  34.9600686
   5.8899526 -11.5904602  26.2900686   4.9509526 -11.5294602  26.1160686
   5.9469526 -11.9334602  27.1820686 -20.5210474  -0.7594602  14.3630686
 -19.7280474  -0.2234602  14.3640686 -20.2370474  -1.6094602  14.6990686
 -13.2550474   2.4735398  40.7030686 -13.8620474   3.0645398  40.2580686
 -12.3870474   2.8175398  40.4920686  -9.3800474  -6.8514602  11.0520686
 -10.0090474  -7.5524602  11.2230686  -9.8320474  -6.2664602  10.4440686
 -18.4780474   7.2565398  36.7510686 -18.0120474   6.5795398  36.2600686
 -19.1260474   7.5975398  36.1340686 -21.3210474 -13.6614602  15.6550686
 -20.9970474 -14.4494602  15.2200686 -20.5350474 -13.2354602  15.9980686
 -18.5320474 -19.8344602  27.1550686 -19.4630474 -19.6974602  26.9810686
 -18.1420474 -19.9584602  26.2900686  -5.9320474  -7.1484602  38.9020686
  -5.0900474  -7.5464602  39.1230686  -5.7690474  -6.6834602  38.0810686
 -11.8910474 -19.3484602  28.6630686 -12.1530474 -18.4274602  28.6560686
 -11.2180474 -19.4014602  29.3410686  -7.7550474 -20.8494602  19.3890686
  -8.1450474 -20.1014602  18.9370686  -7.8200474 -21.5694602  18.7620686
 -16.0350474   5.3965398  20.2750686 -15.8180474   6.2795398  20.5730686
 -15.8930474   5.4205398  19.3290686 -10.6330474 -12.4534602  37.4770686
 -11.0340474 -11.7024602  37.0410686  -9.9240474 -12.0774602  37.9990686
 -14.5560474 -15.1454602  14.0190686 -13.8920474 -14.6234602  13.5690686
 -14.9220474 -14.5524602  14.6760686   1.4749526 -12.1184602  27.8820686
   1.8109526 -13.0114602  27.8120686   1.3809526 -11.9704602  28.8230686
 -15.1160474  -7.7594602  17.6090686 -15.7510474  -8.0204602  18.2760686
 -14.5450474  -8.5214602  17.5100686 -13.8240474 -18.7224602  22.8180686
 -13.6440474 -18.2664602  21.9960686 -13.1370474 -18.4234602  23.4150686
 -15.2610474  -4.2284602  23.0190686 -15.7770474  -3.6354602  23.5660686
 -15.2960474  -5.0684602  23.4770686  -0.4550474 -17.9244602  13.1810686
  -1.2280474 -17.9544602  12.6170686  -0.1120474 -17.0374602  13.0700686
 -15.7020474 -13.3264602  40.3690686 -15.5500474 -12.7874602  41.1450686
 -14.8450474 -13.3884602  39.9480686 -12.5000474   4.3545398  37.3120686
 -12.5080474   4.7535398  36.4420686 -13.2940474   4.6835398  37.7340686
 -18.2230474 -17.9184602  22.8640686 -19.0760474 -17.5794602  22.5900686
 -17.6790474 -17.1384602  22.9710686  -9.7630474  -9.2104602  37.5750686
  -9.3360474  -9.4824602  36.7620686  -9.0480474  -9.1254602  38.2050686
  -7.3390474 -17.0274602  33.7250686  -6.7870474 -16.3864602  33.2770686
  -7.6430474 -17.6104602  33.0300686 -17.9930474  -7.4494602  16.5710686
 -17.6670474  -8.2484602  16.9860686 -18.5140474  -7.0214602  17.2500686
 -10.9680474 -16.5984602  28.9480686 -10.0990474 -16.2124602  28.8410686
 -11.1440474 -16.5374602  29.8870686 -19.9100474   2.1915398  15.5100686
 -20.3500474   1.6015398  16.1220686 -19.1190474   1.7205398  15.2480686
 -13.5190474 -15.5314602  24.0770686 -14.4420474 -15.7084602  24.2580686
 -13.3650474 -15.9194602  23.2160686 -16.4510474  -2.4824602  24.7280686
 -17.1130474  -2.5734602  25.4130686 -15.8200474  -1.8584602  25.0860686
 -10.1830474 -16.7874602  23.5520686  -9.3540474 -17.2534602  23.4400686
 -10.5400474 -17.1284602  24.3730686 -11.9910474  -6.0144602  22.4180686
 -12.8390474  -6.4214602  22.2420686 -12.1810474  -5.0774602  22.4730686
 -11.6320474 -12.8774602  19.8670686 -11.5690474 -13.5864602  20.5080686
 -12.2370474 -12.2504602  20.2610686 -15.5330474   7.2825398  12.1970686
 -16.2290474   6.7575398  11.8020686 -15.6230474   7.1305398  13.1380686
 -16.9030474 -20.6494602  14.9800686 -16.0540474 -21.0584602  14.8110686
 -16.7490474 -19.7144602  14.8480686 -13.4980474 -12.8084602  17.0810686
 -13.0090474 -13.0744602  17.8600686 -12.8910474 -12.2474602  16.5980686
 -11.9420474  -3.1334602  26.4830686 -11.3070474  -3.6464602  25.9830686
 -12.7710474  -3.5964602  26.3660686 -13.8370474 -11.4484602  20.4960686
 -13.6010474 -11.2084602  21.3920686 -14.7700474 -11.6594602  20.5420686
 -10.7190474 -18.5024602  17.1660686 -10.3270474 -18.0224602  17.8960686
 -10.0840474 -19.1894602  16.9610686 -20.1460474 -11.2084602  26.4560686
 -20.7120474 -10.7364602  25.8450686 -20.7520474 -11.6614602  27.0430686
 -19.1170474 -15.6004602  29.0630686 -18.3740474 -16.1354602  28.7850686
 -19.8680474 -15.9754602  28.6020686 -15.6450474 -16.0424602  21.2870686
 -16.2600474 -15.4644602  20.8350686 -15.2690474 -16.5834602  20.5930686
 -18.4200474 -17.2144602  19.1280686 -19.0910474 -17.8524602  19.3680686
 -18.1580474 -17.4624602  18.2420686  -4.7040474 -10.3324602  21.6090686
  -4.1200474 -10.3714602  20.8520686  -5.5810474 -10.4354602  21.2420686
 -10.2940474 -18.7874602  13.1630686 -10.6620474 -18.4174602  12.3610686
  -9.6350474 -18.1504602  13.4410686   0.7689526  -2.2784602  36.1400686
   0.0349526  -2.5834602  36.6720686   1.1649526  -1.5764602  36.6570686
 -18.9140474 -11.4974602  29.7530686 -18.2040474 -12.0404602  29.4090686
 -18.7740474 -10.6384602  29.3540686  -9.3050474 -11.8364602  13.6850686
  -8.8280474 -12.5834602  14.0450686  -8.6890474 -11.1054602  13.7480686
 -12.2290474 -10.2444602  10.9920686 -11.9470474  -9.5644602  10.3800686
 -12.3160474  -9.7904602  11.8310686 -16.7120474   7.2565398  17.9090686
 -17.2870474   7.7925398  18.4540686 -15.9710474   7.8275398  17.7060686
  -7.2710474 -14.9174602  19.5040686  -7.2900474 -14.9174602  20.4610686
  -6.3690474 -14.6834602  19.2830686 -15.5530474  -6.5814602  24.6230686
 -16.1690474  -6.8684602  25.2970686 -15.1980474  -7.3944602  24.2620686
 -21.3340474 -19.6924602  22.8960686 -21.2400474 -20.1314602  22.0510686
 -21.1290474 -18.7754602  22.7150686 -13.1120474  -7.9664602  31.2190686
 -12.9980474  -8.9164602  31.2070686 -12.6850474  -7.6634602  30.4170686
 -17.0320474 -10.3954602  38.8700686 -16.2250474 -10.3204602  39.3780686
 -17.7140474 -10.5534602  39.5230686 -10.2790474  -8.3834602  24.8510686
 -10.6470474  -8.1914602  23.9880686  -9.9280474  -9.2704602  24.7700686
 -12.7670474 -12.9854602  13.4630686 -12.1100474 -12.9244602  12.7700686
 -12.3160474 -12.6764602  14.2490686 -18.2030474  -6.1094602  33.6450686
 -18.3460474  -5.6294602  32.8290686 -17.9390474  -5.4384602  34.2740686
 -19.9950474  -5.0744602  24.8800686 -19.3820474  -4.4244602  25.2220686
 -20.6650474  -5.1544602  25.5590686 -12.9370474 -19.9084602  19.6830686
 -12.0240474 -19.7454602  19.4460686 -12.8940474 -20.2744602  20.5660686
 -10.3940474 -12.1374602  17.5610686  -9.9860474 -12.5734602  16.8120686
 -10.2920474 -12.7564602  18.2840686  -4.6590474 -10.7164602  38.1140686
  -4.9700474 -10.6564602  37.2110686  -3.7110474 -10.6024602  38.0500686
 -17.8440474  -9.3314602  28.6620686 -17.0780474  -9.8134602  28.3500686
 -18.2210474  -8.9434602  27.8720686 -18.4400474 -14.5384602  31.6120686
 -18.5340474 -14.8124602  30.6990686 -18.4500474 -13.5824602  31.5780686
  -6.1110474 -12.6924602  32.4300686  -6.7840474 -13.2664602  32.0640686
  -5.5260474 -13.2814602  32.9060686  -5.5760474 -20.2144602  27.8890686
  -5.7640474 -19.3644602  28.2870686  -6.3180474 -20.7654602  28.1370686
 -18.5530474   3.1195398  23.6500686 -17.7280474   3.5515398  23.4270686
 -19.0360474   3.7705398  24.1580686 -16.8240474  -6.6714602  21.9600686
 -17.4430474  -6.1524602  21.4470686 -16.9140474  -6.3374602  22.8530686
 -14.4080474 -17.3914602  19.1290686 -14.0470474 -17.0754602  18.3010686
 -13.9290474 -18.2014602  19.3060686 -13.6880474   8.4285398  30.0710686
 -13.7890474   7.7895398  29.3660686 -13.1370474   9.1155398  29.6950686
 -17.0120474   4.6435398  26.3010686 -17.9330474   4.8715398  26.1760686
 -16.6540474   4.5975398  25.4150686 -18.7380474 -13.4894602  17.0750686
 -19.3100474 -13.1984602  17.7850686 -18.5870474 -12.7034602  16.5500686
  -1.9790474 -13.4074602  28.3700686  -2.4200474 -13.0894602  29.1580686
  -1.6140474 -12.6204602  27.9650686 -19.3630474   7.6655398  24.9050686
 -19.4570474   7.2015398  24.0730686 -18.8320474   8.4335398  24.6930686
 -15.2640474  -5.9404602  11.0780686 -14.7720474  -6.6234602  11.5330686
 -14.7600474  -5.1404602  11.2280686 -13.1380474 -18.6454602  16.1580686
 -12.2890474 -18.7944602  16.5760686 -13.1100474 -19.1744602  15.3610686
 -13.8840474  -5.1304602  26.1270686 -14.1810474  -5.5194602  26.9490686
 -14.5070474  -5.4484602  25.4730686   2.0349526 -10.8204602  32.9510686
   1.4959526 -11.3894602  33.5000686   1.4379526 -10.1304602  32.6600686
  -9.9180474 -15.4504602  31.4220686  -9.6430474 -14.5364602  31.3510686
  -9.4550474 -15.7804602  32.1920686  -8.9180474 -11.5104602  39.6130686
  -8.1910474 -12.0704602  39.8850686  -8.5560474 -10.9754602  38.9060686
  -7.9030474 -14.4124602  38.5650686  -7.6780474 -14.4874602  39.4920686
  -8.7600474 -14.8324602  38.4910686 -17.1680474  -9.9794602  22.8030686
 -17.4000474  -9.7604602  23.7060686 -16.3250474  -9.5494602  22.6620686
   6.1609526 -19.1614602  24.0970686   6.2799526 -18.8064602  24.9780686
   7.0499526 -19.3024602  23.7720686  -7.5630474 -13.6674602  24.0870686
  -7.4040474 -14.3874602  23.4770686  -6.6900474 -13.4014602  24.3760686
 -21.7100474  -3.7174602  39.9660686 -21.0050474  -3.4314602  40.5460686
 -21.2630474  -4.1594602  39.2450686 -20.4340474  -8.0964602  22.0340686
 -19.9430474  -8.2114602  22.8480686 -20.5170474  -7.1474602  21.9370686
 -18.8290474 -10.5574602  20.7080686 -19.5520474  -9.9464602  20.8450686
 -18.2230474 -10.3774602  21.4280686 -20.4400474 -19.2604602  20.0030686
 -20.9890474 -18.5224602  19.7360686 -21.0280474 -20.0154602  19.9840686
 -19.8900474  -5.4394602  22.1130686 -19.9350474  -5.3694602  23.0670686
 -19.8010474  -4.5354602  21.8100686 -10.3360474  -7.3384602  27.2580686
 -10.2220474  -7.7844602  26.4180686  -9.5170474  -6.8604602  27.3890686
  -7.1990474  -9.4664602  38.5420686  -6.3620474  -9.9264602  38.6150686
  -6.9970474  -8.5624602  38.7840686 -13.4150474  -5.5984602  14.3910686
 -13.1440474  -5.7304602  15.3000686 -13.0040474  -4.7724602  14.1360686
 -14.8650474  -3.2454602  27.7870686 -15.0970474  -3.9524602  28.3890686
 -14.6680474  -3.6884602  26.9620686 -14.8900474 -20.4784602  24.5800686
 -14.7230474 -19.7254602  24.0130686 -14.3250474 -20.3354602  25.3410686
 -19.0540474   6.7375398  16.6270686 -19.3770474   7.5925398  16.3420686
 -18.1700474   6.9095398  16.9490686 -20.7870474   0.6015398  28.3770686
 -20.0680474   0.2795398  27.8350686 -20.6030474   1.5335398  28.4920686
 -17.1070474  -5.4514602  14.8290686 -16.3150474  -5.8874602  14.5150686
 -17.2920474  -5.8684602  15.6710686 -16.1750474 -11.1204602  27.4290686
 -15.2390474 -11.3174602  27.3910686 -16.5790474 -11.9314602  27.7380686
 -13.8080474  -1.7994602  32.6170686 -13.0430474  -2.1334602  32.1470686
 -13.5630474  -0.9094602  32.8720686  -9.4660474 -20.9654602  15.6420686
  -8.6490474 -20.9864602  16.1390686  -9.1920474 -21.0194602  14.7260686
 -14.7790474  -4.2074602  20.2010686 -14.7980474  -3.2894602  19.9280686
 -14.9130474  -4.1784602  21.1480686 -11.0490474 -12.6584602  11.3350686
 -11.4370474 -11.8274602  11.0630686 -10.1050474 -12.5034602  11.3090686
  -8.8550474  -0.8234602  30.3820686  -9.7280474  -1.0094602  30.7260686
  -8.7960474  -1.3484602  29.5830686 -14.1280474  -6.7024602  21.0290686
 -15.0110474  -6.8574602  21.3660686 -14.1800474  -5.8434602  20.6090686
  -8.1780474 -16.4994602  17.2530686  -7.6220474 -17.2754602  17.1840686
  -7.6420474 -15.8604602  17.7230686  -8.1690474  -3.1554602  39.3590686
  -7.8860474  -2.2804602  39.0900686  -7.6490474  -3.3464602  40.1390686
  -8.1080474  -6.0364602  27.3780686  -7.9970474  -5.2284602  26.8770686
  -7.2370474  -6.2234602  27.7280686 -15.1820474  -8.2774602  37.2850686
 -15.4100474  -8.7944602  38.0580686 -14.4840474  -7.6944602  37.5820686
  -4.1040474  -2.8844602  40.0590686  -3.7360474  -3.7664602  40.0080686
  -3.4120474  -2.3154602  39.7220686  -9.2340474  -9.4894602  18.8280686
  -9.9520474  -9.0824602  19.3140686  -9.5190474 -10.3924602  18.6910686
 -18.4780474 -21.5594602  19.6690686 -17.9560474 -21.2004602  20.3860686
 -19.2020474 -20.9414602  19.5660686 -19.7120474  -6.2424602  18.5120686
 -20.3100474  -6.1154602  17.7760686 -20.1840474  -6.8224602  19.1080686
  -9.4180474 -11.2814602  25.9380686  -8.7920474 -10.5674602  26.0580686
  -8.8990474 -11.9944602  25.5630686   5.8919526 -14.7774602  25.6340686
   5.6849526 -15.1894602  24.7960686   5.0679526 -14.3784602  25.9150686
 -16.5590474  -8.9994602  31.3190686 -17.1460474  -8.8934602  30.5700686
 -16.1020474  -8.1614602  31.3860686 -20.7160474 -19.0964602  25.5370686
 -20.9240474 -19.5144602  24.7010686 -20.1510474 -18.3594602  25.3020686
  -2.5560474 -20.3374602  24.9110686  -1.6650474 -20.4644602  24.5850686
  -2.5820474 -19.4204602  25.1860686 -11.7020474  -8.2984602  20.1480686
 -11.4170474  -8.3434602  21.0600686 -12.4410474  -7.6904602  20.1570686
 -17.6210474  -4.9324602  11.7610686 -16.7120474  -5.1284602  11.9900686
 -17.8150474  -5.5184602  11.0300686 -16.9490474 -20.2334602  21.3560686
 -16.2010474 -19.6384602  21.4000686 -17.7080474 -19.6794602  21.5400686
  -8.8730474 -12.2274602  20.5490686  -9.8240474 -12.3014602  20.4670686
  -8.5330474 -13.0104602  20.1150686  -9.0690474  -5.5364602  30.4320686
  -9.5270474  -5.9234602  29.6860686  -8.7570474  -4.6904602  30.1080686
  -4.9460474 -16.7514602  10.8510686  -5.8580474 -16.4834602  10.9670686
  -4.7120474 -17.1704602  11.6800686 -16.8280474  -9.7734602  13.6430686
 -17.6480474  -9.2804602  13.6060686 -16.1900474  -9.1514602  13.9920686
  -2.1250474  -9.5694602  28.1180686  -1.5790474 -10.2824602  27.7870686
  -1.9990474  -8.8584602  27.4890686  -6.8140474 -10.7824602  20.0990686
  -7.6030474 -11.1714602  20.4760686  -6.5770474 -11.3674602  19.3800686
 -11.0300474  -9.5884602  13.6570686 -11.3140474  -9.5664602  14.5700686
 -10.6260474 -10.4494602  13.5510686 -12.3070474  -3.3524602  22.8350686
 -13.2390474  -3.5154602  22.9780686 -12.2260474  -2.3984602  22.8400686
 -16.5280474 -17.6514602  16.7950686 -16.0860474 -17.3684602  17.5950686
 -16.1330474 -17.1214602  16.1020686  -5.0880474 -10.8584602  35.2310686
  -5.8590474 -11.3214602  34.9030686  -4.3510474 -11.2744602  34.7850686
   4.2429526  -8.4424602  27.0470686   4.5909526  -9.0284602  27.7190686
   3.5609526  -8.9544602  26.6120686 -16.4780474 -12.2884602  20.1850686
 -17.2560474 -11.7334602  20.1280686 -16.7170474 -13.0864602  19.7130686
  -8.3460474 -10.1974602  23.0220686  -7.5970474  -9.6074602  22.9330686
  -8.0680474 -11.0044602  22.5880686 -17.0150474  -2.1804602  21.0140686
 -17.6780474  -1.9354602  21.6590686 -17.4870474  -2.7164602  20.3770686
 -12.3770474 -16.6924602  21.6020686 -12.4630474 -16.0214602  20.9240686
 -11.5300474 -16.5144602  22.0100686 -14.9080474  -7.7284602  14.8040686
 -14.2260474  -7.1144602  14.5330686 -14.9840474  -7.6014602  15.7500686
 -14.4040474   8.0205398  15.2370686 -13.6500474   8.2865398  14.7100686
 -14.2480474   8.4165398  16.0940686 -18.8720474   5.7265398  20.4700686
 -17.9370474   5.5185398  20.4720686 -18.9100474   6.6575398  20.2520686
  -5.0530474 -15.7324602  16.8370686  -4.1360474 -15.9174602  16.6350686
  -5.5420474 -16.1224602  16.1130686   1.9109526 -14.0994602  19.1270686
   2.0209526 -14.7984602  18.4820686   2.5889526 -13.4614602  18.9070686
 -13.2600474  -9.6874602  18.3930686 -12.5060474  -9.2514602  18.7900686
 -13.6320474 -10.2154602  19.0990686  -5.0690474 -10.1964602  31.5900686
  -5.3320474 -11.0324602  31.9740686  -5.8860474  -9.7064602  31.4970686
  -6.5030474 -17.9004602  29.5650686  -5.8000474 -17.2504602  29.5620686
  -6.7130474 -18.0224602  30.4910686 -11.2650474 -13.4024602  34.1240686
 -10.9900474 -14.0354602  34.7880686 -10.9790474 -12.5564602  34.4680686
  -4.5710474 -12.8934602  27.5330686  -4.7150474 -12.0784602  28.0140686
  -3.6550474 -13.1134602  27.7020686 -15.0860474 -11.8244602  12.4190686
 -14.2110474 -12.1344602  12.6510686 -15.5400474 -11.7354602  13.2570686
 -15.4430474 -11.9754602  37.0060686 -15.8310474 -11.3784602  37.6460686
 -15.0410474 -11.4014602  36.3550686  -9.4220474 -13.1694602  28.2990686
 -10.3380474 -13.0564602  28.5550686  -9.1920474 -12.3494602  27.8620686
 -17.5180474 -11.6924602  32.0610686 -18.4220474 -11.4454602  32.2550686
 -17.0280474 -10.8724602  32.1160686  -7.2110474  -7.8834602  32.0260686
  -7.9810474  -7.3174602  31.9700686  -7.1650474  -8.1354602  32.9480686
 -17.5340474 -15.6784602  15.0570686 -16.9720474 -14.9364602  14.8340686
 -17.7830474 -15.5254602  15.9690686  -6.7110474  -8.7454602  34.8440686
  -5.9580474  -9.1484602  35.2760686  -7.4020474  -9.4064602  34.9000686
  -2.6020474  -8.8474602  32.0370686  -3.3440474  -8.8224602  32.6400686
  -2.8760474  -8.3064602  31.2960686 -15.0300474   4.4985398  34.2280686
 -14.3810474   4.7005398  33.5540686 -15.8370474   4.3315398  33.7410686
  -4.4930474  -6.7584602  31.2430686  -4.0700474  -6.3374602  31.9920686
  -5.3850474  -6.9374602  31.5410686  -7.9340474  -6.3644602  34.4720686
  -7.2790474  -5.8104602  34.0470686  -7.4230474  -7.0314602  34.9300686
  -5.1870474 -12.5144602  25.0480686  -4.7020474 -11.6894602  25.0500686
  -5.1470474 -12.8184602  25.9550686  -5.8510474 -17.2384602  14.2110686
  -5.5870474 -18.1014602  14.5300686  -6.5770474 -17.4164602  13.6120686
 -10.7670474  -8.4794602  33.9980686 -10.1140474  -8.3724602  33.3060686
 -11.0820474  -7.5924602  34.1700686 -13.6100474 -16.7804602  27.1960686
 -14.4320474 -16.7634602  26.7060686 -13.8790474 -16.8194602  28.1140686
 -12.6250474 -11.6424602  23.1150686 -12.0690474 -12.4144602  23.0070686
 -12.7270474 -11.5514602  24.0630686 -11.3900474 -10.8744602  35.1500686
 -11.1350474 -10.0414602  34.7520686 -12.1560474 -11.1544602  34.6490686
   5.9209526 -14.2574602  12.8050686   5.9599526 -14.5514602  13.7150686
   6.6299526 -14.7324602  12.3700686 -10.0780474 -15.4334602  36.3730686
 -10.6880474 -14.7294602  36.5910686 -10.6200474 -16.0974602  35.9470686
  -0.8360474 -12.1424602  40.0010686   0.0499526 -12.5024602  39.9480686
  -1.4100474 -12.8974602  39.8760686  -5.0730474 -15.7284602  28.8690686
  -4.1700474 -15.9094602  28.6060686  -5.1240474 -14.7734602  28.9120686
  -7.0140474  -2.1224602  35.3830686  -7.3220474  -2.6914602  36.0880686
  -6.0600474  -2.1394602  35.4600686 -10.6000474  -3.6914602  28.9920686
 -11.3100474  -3.7424602  28.3520686  -9.9500474  -3.1194602  28.5840686
  -1.3330474 -11.4364602  24.0750686  -2.1080474 -11.0144602  24.4460686
  -1.2100474 -11.0104602  23.2270686 -19.8670474  -8.6564602  36.1260686
 -19.3750474  -8.8044602  35.3190686 -20.1780474  -9.5254602  36.3810686
 -17.2360474   2.0905398  10.5990686 -16.8150474   2.3395398  11.4220686
 -16.5260474   1.7355398  10.0650686 -19.8820474  -3.2614602  11.9500686
 -19.7530474  -2.3134602  11.9790686 -19.0370474  -3.6104602  11.6690686
 -17.2460474 -13.3544602  28.7690686 -16.6470474 -13.6504602  29.4550686
 -17.7210474 -14.1434602  28.5090686 -16.9990474 -15.2654602  33.6930686
 -17.0460474 -16.2214602  33.6780686 -17.6520474 -14.9824602  33.0540686
 -19.3550474  -8.7474602  13.7920686 -20.1880474  -9.1154602  14.0890686
 -19.4480474  -7.8044602  13.9280686 -10.8300474 -19.2414602  36.1720686
 -11.0150474 -19.1874602  37.1090686 -11.2350474 -18.4574602  35.8010686
 -19.4370474 -11.9264602  37.6640686 -19.2010474 -12.8124602  37.3900686
 -18.8120474 -11.7144602  38.3570686  -2.7940474 -17.6924602  25.5440686
  -2.3020474 -17.0284602  25.0610686  -3.6460474 -17.7234602  25.1090686
 -13.7600474   8.1595398  33.0210686 -12.9750474   8.7045398  33.0710686
 -13.7420474   7.7925398  32.1370686 -12.6200474  -4.6074602  36.7530686
 -12.2970474  -5.1454602  36.0290686 -12.3750474  -3.7134602  36.5150686
 -17.2140474 -14.9684602  38.4820686 -16.6370474 -14.7454602  37.7520686
 -16.6800474 -14.8224602  39.2630686 -13.8870474 -11.4294602  33.9200686
 -14.5450474 -10.8364602  34.2830686 -14.3730474 -12.2254602  33.7040686
 -20.2740474 -12.3414602  23.1720686 -20.7850474 -11.7204602  23.6900686
 -20.9260474 -12.9224602  22.7820686 -12.7900474 -19.7664602  13.9290686
 -13.3400474 -19.6954602  13.1480686 -11.9360474 -19.4354602  13.6510686
 -15.7550474 -14.3894602  36.0580686 -16.2360474 -14.5034602  35.2390686
 -15.6360474 -13.4434602  36.1370686  -8.5990474 -10.7094602  35.5170686
  -9.4370474 -10.8434602  35.0750686  -8.3000474 -11.5914602  35.7370686
   1.8579526 -15.4594602  27.6630686   0.9189526 -15.4994602  27.4810686
   2.2719526 -15.7884602  26.8650686 -17.7530474 -10.0604602  25.6350686
 -18.5170474 -10.4804602  26.0290686 -17.0030474 -10.5064602  26.0300686
 -11.4870474 -20.1154602  32.8810686 -11.1120474 -20.2344602  33.7540686
 -10.7370474 -19.9094602  32.3230686 -18.5360474 -19.4944602  33.1090686
 -17.8650474 -18.9424602  33.5120686 -19.1560474 -18.8754602  32.7250686
 -15.1080474  -4.9854602  17.5810686 -15.2950474  -5.9154602  17.7060686
 -15.0770474  -4.6244602  18.4670686 -13.3640474  -6.6844602  38.5080686
 -12.9410474  -5.9194602  38.1170686 -13.8500474  -6.3344602  39.2550686
 -21.1350474 -20.9034602  39.4530686 -20.3350474 -20.4574602  39.7310686
 -21.8020474 -20.2164602  39.4450686 -19.8710474   6.4265398  39.0870686
 -19.6440474   6.2325398  38.1770686 -20.0050474   7.3735398  39.1040686
 -14.0870474  -2.2504602  39.3900686 -13.8500474  -2.7644602  40.1620686
 -14.6820474  -1.5784602  39.7220686 -12.0980474 -17.0194602  35.2230686
 -12.9970474 -16.9564602  35.5460686 -12.1880474 -17.0654602  34.2710686
 -14.7510474 -10.1214602  40.0340686 -13.8030474  -9.9914602  40.0420686
 -14.9200474 -10.7074602  40.7720686 -15.4990474 -13.2824602  33.0560686
 -15.9060474 -14.1404602  33.1740686 -16.0120474 -12.8664602  32.3630686
 -16.9510474 -19.0434602  40.1690686 -17.5070474 -19.1154602  40.9440686
 -17.4350474 -19.5014602  39.4820686   6.0239526 -21.6244602  37.8850686
   6.3939526 -20.8804602  38.3600686   6.5489526 -21.6854602  37.0870686
  -4.0830474 -17.9984602  32.8670686  -4.0510474 -18.9124602  33.1510686
  -3.5730474 -17.9814602  32.0570686  -8.2520474 -19.8854602  34.8450686
  -7.6110474 -19.9784602  35.5500686  -9.0190474 -19.4994602  35.2680686
 -13.6900474 -10.6974602  31.3180686 -14.6140474 -10.5404602  31.1240686
 -13.6820474 -10.9854602  32.2310686 -14.7210474  -4.3764602  34.1070686
 -13.8410474  -4.4614602  34.4730686 -14.9350474  -3.4484602  34.2080686
 -15.6990474 -13.5234602  15.9030686 -16.2680474 -12.7714602  16.0680686
 -14.9410474 -13.3804602  16.4690686   7.2059526 -13.3644602  21.9390686
   7.2829526 -14.2784602  21.6640686   6.3839526 -13.0654602  21.5510686
 -18.0150474  -2.6764602  17.0080686 -17.6180474  -1.8314602  17.2210686
 -17.5010474  -3.0034602  16.2700686 -22.0320474   7.6035398  11.7340686
 -21.7320474   8.1155398  10.9830686 -21.8720474   6.6935398  11.4840686
 -16.0010474 -16.9594602  25.9880686 -16.4830474 -16.4074602  25.3730686
 -16.6280474 -17.1444602  26.6870686  -7.6590474 -13.2504602  35.8500686
  -8.3730474 -13.8834602  35.9210686  -7.1880474 -13.3254602  36.6800686
 -21.2930474 -11.8684602  35.7230686 -20.5840474 -11.9924602  36.3540686
 -20.8570474 -11.5614602  34.9290686  -7.4670474 -21.3684602  23.7460686
  -6.8020474 -22.0184602  23.9750686  -7.3220474 -20.6494602  24.3600686
 -17.7950474 -17.5234602  37.3900686 -18.7230474 -17.3884602  37.1990686
 -17.5610474 -16.7994602  37.9700686 -18.3420474  -8.7684602  33.8620686
 -18.3830474  -7.8224602  34.0040686 -18.0260474  -8.8614602  32.9630686
  -1.3680474 -19.2504602  34.8230686  -1.7150474 -19.4134602  33.9460686
  -1.4670474 -20.0854602  35.2800686  -7.5940474  -9.4744602  26.8510686
  -7.9750474  -8.7164602  27.2950686  -6.7370474  -9.5874602  27.2620686
  -0.6170474  -3.7184602  34.3250686  -0.7270474  -4.5034602  34.8620686
  -0.1940474  -3.0874602  34.9060686 -13.1940474  -4.2654602  11.1610686
 -12.4290474  -4.6404602  10.7250686 -12.8320474  -3.7684602  11.8950686
 -13.2670474   6.2975398  35.4890686 -13.4530474   6.0475398  34.5840686
 -12.5200474   6.8925398  35.4250686 -15.6990474  -9.7144602  34.9110686
 -16.5400474  -9.3934602  34.5830686 -15.3500474  -8.9884602  35.4270686
 -22.7430474 -12.7214602  30.8880686 -23.0270474 -13.5244602  31.3240686
 -22.9290474 -12.0264602  31.5190686 -11.5450474 -11.5994602  29.2720686
 -12.1590474 -12.2574602  28.9470686 -11.6970474 -11.5744602  30.2170686
 -12.1330474 -11.5624602  25.8720686 -11.2000474 -11.3694602  25.7780686
 -12.1630474 -12.3404602  26.4280686 -19.3530474 -14.3384602  36.5610686
 -18.5530474 -14.8574602  36.6450686 -19.4990474 -14.2744602  35.6170686
 -21.9190474  -7.3494602  40.1560686 -21.3710474  -6.5854602  39.9740686
 -21.9610474  -7.3924602  41.1110686 -11.5640474  -8.3354602  39.4010686
 -12.2040474  -7.7884602  38.9460686 -11.0060474  -8.6824602  38.7050686
   5.5229526 -20.2124602  28.2890686   5.4659526 -21.1364602  28.5330686
   5.4689526 -19.7414602  29.1210686  -5.9470474  -4.9154602  33.1470686
  -6.1030474  -3.9924602  33.3480686  -5.0470474  -4.9414602  32.8230686
  -7.0760474 -18.2184602  12.0100686  -6.5170474 -18.9944602  11.9720686
  -7.4210474 -18.1274602  11.1220686 -22.0350474 -18.1114602  34.4770686
 -22.3540474 -18.9884602  34.2660686 -21.2720474 -17.9904602  33.9110686
  -9.0170474  -1.8094602  27.7670686  -9.0900474  -1.0044602  27.2540686
  -8.2050474  -2.2154602  27.4620686 -12.3910474 -14.3514602  26.4440686
 -12.3660474 -15.2054602  26.8760686 -12.7690474 -14.5294602  25.5830686
  -7.3520474 -17.3404602  36.6320686  -8.0470474 -16.6824602  36.6430686
  -7.1190474 -17.4284602  35.7080686 -13.5320474 -13.4454602  38.7740686
 -14.1080474 -13.3524602  38.0150686 -12.7230474 -13.0034602  38.5170686
 -14.9630474 -14.4324602  30.2530686 -14.9860474 -15.3884602  30.2260686
 -14.1230474 -14.2234602  30.6630686  -4.4810474   7.8665398  38.8460686
  -4.9670474   7.0485398  38.7430686  -4.1800474   7.8545398  39.7550686
 -21.7880474 -15.4754602  20.1580686 -22.2610474 -15.2084602  19.3700686
 -20.9890474 -14.9484602  20.1490686 -11.7580474   1.3775398  31.3000686
 -11.7250474   0.4295398  31.4230686 -12.3890474   1.5055398  30.5910686
 -20.2350474  -2.7464602  21.4930686 -19.7260474  -2.1994602  22.0910686
 -19.8550474  -2.5764602  20.6310686 -20.7420474 -16.8524602  22.6070686
 -21.2180474 -16.5114602  21.8500686 -21.0660474 -16.3384602  23.3460686
 -11.1820474  -1.1414602  31.7880686 -11.2890474  -2.0144602  31.4110686
 -10.5680474  -1.2664602  32.5130686  -9.0500474 -14.7904602  12.9870686
  -9.8420474 -14.3274602  12.7110686  -9.3590474 -15.4354602  13.6230686
 -17.9100474   7.9905398  28.7610686 -17.7760474   8.1395398  29.6970686
 -18.2950474   8.8065398  28.4410686  -9.8190474 -16.4034602  15.1810686
  -9.2270474 -16.4124602  15.9330686 -10.5120474 -17.0214602  15.4140686
 -19.5830474   3.0755398  29.8850686 -18.7040474   2.6995398  29.8400686
 -19.4930474   3.9435398  29.4920686 -22.8720474  -0.0514602  15.2160686
 -21.9790474  -0.3744602  15.1000686 -23.4200474  -0.6924602  14.7620686
 -18.2320474   0.9605398  27.1020686 -17.6330474   1.7065398  27.1330686
 -17.6990474   0.2145398  27.3780686 -17.1120474  -0.1324602  17.2820686
 -16.4560474   0.2505398  17.8640686 -17.9280474  -0.0944602  17.7810686
   7.0989526   0.4125398  40.3730686   6.4039526   0.4905398  41.0270686
   7.0339526  -0.4884602  40.0590686 -20.6000474  -2.7424602  16.0410686
 -21.2470474  -2.9034602  16.7290686 -19.7550474  -2.8774602  16.4700686
 -16.4140474  -2.6254602  12.8970686 -17.0060474  -2.0104602  12.4640686
 -16.9130474  -3.4404602  12.9520686 -17.0580474   5.8585398  40.4560686
 -17.6540474   6.0215398  39.7240686 -17.5480474   5.2795398  41.0400686
  -6.4730474  -2.4624602  31.7600686  -6.4060474  -3.1734602  31.1230686
  -7.2160474  -1.9394602  31.4590686 -12.5340474   1.9485398  27.6350686
 -13.2820474   1.6775398  28.1670686 -12.3960474   1.2215398  27.0270686
 -13.7430474 -16.0914602  16.2650686 -14.0590474 -15.8584602  15.3920686
 -13.4910474 -17.0114602  16.1920686 -18.6370474  -1.3824602  23.0860686
 -19.0660474  -0.5734602  23.3630686 -17.8760474  -1.4594602  23.6620686
 -19.6630474  -6.0454602  13.7270686 -19.2740474  -5.3874602  13.1510686
 -19.1100474  -6.0374602  14.5080686 -18.7310474  -3.7484602  19.4460686
 -18.6790474  -3.3674602  18.5700686 -19.3180474  -4.4974602  19.3480686
 -12.7460474  -7.1934602  28.4500686 -13.2040474  -8.0304602  28.3700686
 -11.9730474  -7.2884602  27.8940686 -16.2050474   3.3375398  17.5410686
 -15.5960474   2.8545398  16.9830686 -16.8580474   3.6895398  16.9360686
 -22.1290474  -3.7514602  13.5870686 -21.5350474  -3.6964602  14.3360686
 -21.6040474  -3.4604602  12.8420686 -10.0540474 -19.4774602  20.1250686
  -9.2760474 -19.9734602  20.3810686 -10.2710474 -18.9554602  20.8970686
 -22.2950474  -6.7864602  12.9500686 -22.9240474  -6.0754602  13.0690686
 -21.4440474  -6.3864602  13.1270686 -15.2320474  -5.8924602  28.7440686
 -15.5290474  -5.9234602  29.6530686 -14.4550474  -6.4514602  28.7250686
 -18.5450474   1.0325398  21.4220686 -19.0840474   1.4825398  22.0730686
 -17.8540474   1.6595398  21.2080686 -19.6020474   0.8195398  24.6910686
 -19.2650474   1.5755398  24.2100686 -19.0920474   0.8025398  25.5010686
  -2.8240474 -18.4974602  11.9350686  -2.4770474 -19.1814602  11.3620686
  -3.6850474 -18.8214602  12.2000686   5.2669526 -19.1074602  30.6680686
   4.4649526 -19.3204602  31.1460686   5.5189526 -18.2434602  30.9930686
 -21.9180474 -21.5344602  36.2540686 -21.1330474 -21.4634602  35.7110686
 -21.6680474 -21.1404602  37.0900686 -22.1280474  -4.8424602  26.4340686
 -22.7320474  -5.2764602  27.0370686 -22.6030474  -4.0674602  26.1350686
 -12.4770474 -20.0854602  26.2390686 -12.3110474 -20.0574602  27.1820686
 -12.2020474 -19.2254602  25.9220686 -11.6010474  -2.3094602  35.8570686
 -10.8700474  -2.1984602  35.2490686 -11.4300474  -1.6774602  36.5550686
 -19.5790474  -2.1564602  28.7180686 -20.4680474  -1.9634602  29.0170686
 -19.0150474  -1.8524602  29.4280686   3.4279526 -13.0084602  25.2240686
   3.0219526 -12.1414602  25.2440686   2.6899526 -13.6184602  25.2170686
 -19.8040474   0.4165398  18.6970686 -19.4910474   1.1735398  19.1930686
 -20.7580474   0.4935398  18.7180686 -15.8480474  -0.0794602  19.7940686
 -15.6470474   0.6825398  20.3380686 -16.3610474  -0.6524602  20.3640686
 -10.4260474   4.4905398  39.7510686 -10.7510474   4.4465398  40.6500686
 -11.2090474   4.6325398  39.2190686 -11.6400474   4.5655398  27.0430686
 -11.0160474   4.4955398  26.3210686 -11.6400474   3.6965398  27.4460686
 -12.0440474  -3.0574602  13.2810686 -12.2380474  -2.1254602  13.3860686
 -11.3480474  -3.2304602  13.9160686  -9.2660474 -21.0864602  12.3640686
 -10.0470474 -21.3094602  11.8580686  -9.2610474 -20.1294602  12.3900686
 -19.7360474 -20.9464602  15.0910686 -18.7810474 -20.8794602  15.0850686
 -20.0320474 -20.1214602  15.4750686 -13.1040474  -5.6534602  32.3110686
 -14.0140474  -5.3784602  32.4190686 -13.1610474  -6.5624602  32.0170686
 -14.9160474  -0.2074602  25.1770686 -14.0180474  -0.1974602  25.5080686
 -14.9320474   0.4725398  24.5040686 -14.6690474  -1.8044602  35.7800686
 -14.8620474  -2.3444602  36.5470686 -13.7140474  -1.8054602  35.7200686
  -9.9590474 -20.2244602  23.0520686  -9.3360474 -20.9244602  23.2490686
 -10.8030474 -20.5654602  23.3470686 -14.9440474   1.6715398  35.1170686
 -14.2790474   1.1715398  34.6440686 -14.9550474   2.5255398  34.6830686
 -15.7100474 -19.3444602  30.3140686 -15.1580474 -20.1104602  30.1570686
 -16.4610474 -19.6854602  30.8010686  -6.2440474  -9.2464602  11.7140686
  -6.7660474  -8.4914602  11.4410686  -6.6780474  -9.5644602  12.5060686
 -11.4660474  -5.6654602  34.4610686 -10.8220474  -5.1404602  33.9850686
 -12.1240474  -5.8914602  33.8040686 -16.1410474   6.9435398  24.7500686
 -15.5500474   7.6765398  24.9240686 -16.9460474   7.1685398  25.2160686
 -13.1400474   1.0715398  37.1970686 -13.6270474   1.1095398  36.3730686
 -13.1770474   1.9645398  37.5390686   4.4429526 -21.2194602  23.3500686
   4.5999526 -21.8564602  24.0470686   5.0269526 -20.4894602  23.5560686
 -21.4560474   8.1815398  26.4100686 -21.4770474   9.1325398  26.5210686
 -20.6250474   8.0105398  25.9670686 -16.0770474  -0.9874602  28.4070686
 -15.4590474  -1.6844602  28.1880686 -16.6350474  -1.3654602  29.0870686
 -14.5520474 -17.3514602  12.3770686 -14.4610474 -16.7084602  13.0800686
 -15.3730474 -17.8054602  12.5710686 -16.7770474   1.9765398  30.6170686
 -16.5830474   1.7595398  29.7050686 -15.9500474   2.3125398  30.9650686
  -5.5220474   0.8345398  37.9430686  -5.2710474   1.3435398  38.7140686
  -4.7890474   0.9415398  37.3360686 -21.2290474   6.9205398  18.0990686
 -20.5600474   6.4115398  17.6430686 -22.0140474   6.3745398  18.0610686
 -19.5560474   3.1795398  19.5830686 -19.1540474   4.0155398  19.8180686
 -20.3920474   3.4195398  19.1820686 -21.4970474   5.2255398  10.9130686
 -20.7210474   5.5385398  10.4480686 -21.6750474   4.3665398  10.5310686
 -21.3980474  -2.4694602  24.1230686 -22.0880474  -2.0844602  23.5830686
 -20.9050474  -3.0264602  23.5200686 -18.9650474   5.3375398  28.6630686
 -19.1470474   5.2905398  27.7250686 -18.4570474   6.1425398  28.7680686
  -9.6300474   0.5225398  26.1290686 -10.5820474   0.4295398  26.1540686
  -9.3900474   0.2965398  25.2310686 -19.4690474 -15.3484602  12.4220686
 -18.9070474 -14.6814602  12.0270686 -18.9340474 -15.7304602  13.1180686
 -15.7150474   0.9455398  38.6300686 -16.3020474   0.8355398  37.8820686
 -14.8360474   0.8705398  38.2570686 -22.7730474 -17.9704602  16.3540686
 -22.9180474 -18.8844602  16.1120686 -22.8370474 -17.9624602  17.3090686
  -7.5700474  -0.6764602  38.6510686  -8.2020474  -0.0004602  38.4090686
  -6.7300474  -0.3454602  38.3310686  -3.0060474 -21.2384602  36.8320686
  -3.6030474 -21.4764602  37.5410686  -2.6140474 -20.4124602  37.1150686
 -14.2140474 -16.5934602  36.7360686 -14.3440474 -16.6944602  37.6790686
 -14.9430474 -16.0424602  36.4500686 -17.8550474 -20.5294602  38.1340686
 -17.6730474 -19.7204602  37.6570686 -17.9860474 -21.1864602  37.4500686
 -10.2940474   0.5195398  35.0440686 -10.1970474   0.2405398  35.9550686
  -9.7700474  -0.1064602  34.5440686 -18.1620474   4.9005398  12.5980686
 -18.0790474   4.1795398  13.2220686 -18.9820474   5.3315398  12.8360686
 -15.9150474  -5.5344602  31.2510686 -16.4890474  -5.7924602  31.9730686
 -15.9160474  -4.5774602  31.2750686  -9.3720474  -4.5324602  32.8630686
  -8.8090474  -5.1424602  33.3400686  -9.4810474  -4.9314602  32.0000686
  -9.4270474  -2.0494602  34.0410686  -9.3080474  -2.8584602  33.5430686
  -8.7140474  -2.0524602  34.6790686 -17.3920474  -0.6654602  11.1510686
 -18.2970474  -0.6264602  10.8410686 -17.0410474   0.2075398  10.9770686
 -18.9900474   2.2035398  38.4210686 -19.1350474   1.2675398  38.2810686
 -18.3030474   2.2435398  39.0860686   0.4309526   3.8385398  36.7860686
   0.9639526   4.2555398  36.1080686  -0.2660474   4.4695398  36.9640686
  -1.8100474   5.6675398  36.7950686  -2.1580474   5.8095398  35.9150686
  -1.5600474   6.5405398  37.0980686 -11.2520474   7.9585398  35.6400686
 -11.3900474   8.7465398  36.1660686 -10.3160474   7.7755398  35.7230686
 -17.2830474   4.0025398  32.5840686 -16.7750474   4.3975398  31.8750686
 -17.6430474   3.2015398  32.2040686 -14.4500474 -18.9754602  35.4460686
 -14.8180474 -19.7174602  35.9250686 -14.4410474 -18.2604602  36.0820686
 -19.3400474  -0.5564602  38.4480686 -20.2140474  -0.6694602  38.0750686
 -18.7460474  -0.8684602  37.7670686   1.6109526  -4.5284602  32.9060686
   2.2109526  -5.2224602  33.1790686   0.7829526  -4.7424602  33.3350686
 -11.2120474  -1.4504602  40.2900686 -12.1000474  -1.6304602  39.9810686
 -10.9010474  -2.2884602  40.6300686 -12.2730474  -0.4544602  26.2650686
 -11.8590474  -1.2034602  26.6930686 -12.0210474  -0.5334602  25.3450686
 -15.1090474  -3.9224602  37.4830686 -14.9590474  -3.4364602  38.2940686
 -14.2390474  -4.2164602  37.2140686  -8.2160474   6.0715398  39.9710686
  -9.1140474   5.8315398  40.1980686  -8.3070474   6.6635398  39.2240686
 -14.8980474   4.0835398  39.6260686 -15.5630474   4.4685398  40.1970686
 -15.3410474   3.9665398  38.7860686 -23.0120474   4.1625398  33.4720686
 -23.1250474   3.3665398  33.9910686 -22.0720474   4.2025398  33.2950686
   3.8609526 -17.8644602  33.2440686   3.8629526 -18.6924602  33.7240686
   4.4449526 -17.2954602  33.7440686 -17.4240474  -4.5014602  35.9760686
 -17.5330474  -5.4084602  36.2640686 -16.5660474  -4.2444602  36.3140686
 -12.9910474 -17.9754602  32.3410686 -13.7950474 -18.0684602  32.8520686
 -12.4010474 -18.6394602  32.6970686 -11.5720474   7.4225398  38.4150686
 -12.5220474   7.4165398  38.2970686 -11.2190474   7.2675398  37.5390686
 -14.4260474  -8.8724602  23.2920686 -14.1520474  -8.3184602  22.5620686
 -13.6610474  -9.4164602  23.4810686 -18.0410474   0.4765398  15.0100686
 -17.4260474   0.8075398  14.3550686 -17.5220474   0.4055398  15.8120686
 -21.7260474   2.3385398  12.7990686 -21.2060474   1.8425398  12.1670686
 -21.2880474   2.1925398  13.6370686 -21.6340474  -0.6084602  32.8430686
 -21.3840474  -1.2764602  32.2050686 -20.9480474   0.0555398  32.7770686
 -15.4970474   4.6725398  30.5740686 -15.4850474   5.1195398  29.7280686
 -14.6680474   4.9175398  30.9860686 -12.0650474 -19.3384602  38.6460686
 -12.9450474 -19.5374602  38.3260686 -12.1890474 -19.1194602  39.5690686
 -10.7490474  -0.4354602  37.6890686 -11.5560474   0.0595398  37.5450686
 -10.4710474  -0.1894602  38.5710686 -21.0000474   4.5135398  36.9550686
 -21.8800474   4.8515398  36.7930686 -21.1000474   3.9375398  37.7130686
 -16.0050474   8.1295398  34.9190686 -15.5050474   7.5955398  35.5360686
 -15.3730474   8.3705398  34.2420686  -7.0310474 -19.4254602  32.2160686
  -7.3950474 -19.5734602  33.0890686  -6.1270474 -19.7334602  32.2780686
 -14.0150474   0.1415398  30.3740686 -14.6790474   0.0615398  29.6890686
 -13.9240474  -0.7444602  30.7250686  -8.3750474 -18.1724602  39.2540686
  -8.7380474 -19.0414602  39.0780686  -7.8560474 -17.9684602  38.4760686
  -5.8080474  -5.8044602  36.4240686  -5.1350474  -5.1244602  36.3820686
  -6.6160474  -5.3304602  36.6190686  -9.8450474 -19.9754602  30.5170686
  -8.9450474 -19.9254602  30.8400686  -9.9700474 -20.8984602  30.2970686
 -14.6570474 -20.2624602  38.6600686 -15.3140474 -20.1214602  39.3420686
 -14.7210474 -21.1964602  38.4560686 -12.7740474   0.4845398  33.6830686
 -12.6140474   0.9695398  32.8730686 -11.9140474   0.4195398  34.0980686
  -4.4230474 -13.5014602  12.1240686  -3.7100474 -13.1474602  12.6550686
  -4.8590474 -12.7294602  11.7620686  -7.7780474  -4.2684602  36.9130686
  -7.6690474  -3.8374602  37.7610686  -8.3650474  -5.0024602  37.0910686
 -15.6310474   4.8815398  36.8120686 -16.5560474   4.7555398  36.5990686
 -15.1900474   4.8965398  35.9630686 -15.7700474   6.0175398  28.2010686
 -16.0810474   5.7465398  27.3370686 -16.3690474   6.7165398  28.4630686
   2.1839526 -18.5164602  35.9210686   1.8499526 -18.8354602  35.0830686
   2.7269526 -19.2324602  36.2510686 -13.8240474 -20.3534602  11.6920686
 -14.5080474 -21.0234602  11.6680686 -14.2370474 -19.5754602  11.3190686
 -14.4870474   7.0575398  38.3140686 -14.8130474   6.4735398  37.6290686
 -14.8890474   6.7305398  39.1190686  -9.7880474  -6.2944602  36.8760686
  -9.9100474  -7.2434602  36.8530686  -9.7070474  -6.0414602  35.9560686
 -17.4080474 -21.3534602  31.4140686 -17.7580474 -20.7264602  32.0470686
 -17.5460474 -22.2084602  31.8230686  -8.2390474 -13.7334602  15.8720686
  -7.5470474 -13.8544602  15.2220686  -8.5100474 -14.6224602  16.1010686
 -10.6670474 -15.1834602  18.3940686  -9.8460474 -15.6104602  18.1510686
 -11.3330474 -15.6274602  17.8690686 -12.1360474 -15.3184602  40.4830686
 -11.7890474 -14.6404602  41.0620686 -12.7560474 -14.8574602  39.9170686
  -3.5330474 -13.9834602  23.3090686  -3.3460474 -13.5504602  22.4760686
  -3.9300474 -13.3014602  23.8510686   7.0289526  -8.5964602  30.6740686
   6.3309526  -7.9804602  30.4500686   6.6389526  -9.4594602  30.5350686
   0.5269526 -13.4294602  25.1170686   0.1529526 -13.0614602  24.3160686
   0.1609526 -14.3124602  25.1690686   4.5689526 -17.5354602  21.1700686
   4.4269526 -17.2354602  20.2730686   4.8039526 -18.4594602  21.0810686
   0.9319526 -13.6184602  21.6500686   0.3549526 -13.0444602  21.1470686
   1.5929526 -13.9054602  21.0200686   1.2299526 -20.1794602  21.4590686
   0.3139526 -20.0604602  21.7090686   1.1999526 -20.7874602  20.7210686
  -0.0850474   0.3165398  40.4190686   0.1999526  -0.3684602  41.0250686
   0.4879526   0.2165398  39.6590686 -22.8490474 -14.8014602  28.1000686
 -22.1310474 -14.1974602  28.2890686 -23.1920474 -14.5084602  27.2560686
  -4.2870474 -16.6394602  23.0250686  -3.7170474 -17.0464602  22.3720686
  -3.9130474 -15.7684602  23.1610686   4.8509526 -18.7444602  14.4660686
   5.3059526 -19.5114602  14.1180686   4.1309526 -18.5944602  13.8540686
  -7.0400474 -14.5124602  11.1770686  -7.7070474 -14.6774602  11.8440686
  -6.4530474 -13.8724602  11.5780686  -3.3760474  -4.2894602  37.1630686
  -2.6180474  -4.6564602  36.7080686  -3.3720474  -4.7174602  38.0190686
   3.0299526 -16.0934602  25.2850686   3.2489526 -15.6904602  24.4450686
   2.8529526 -17.0094602  25.0730686   2.5409526 -14.5594602  16.0160686
   1.9759526 -15.3224602  15.8950686   2.8539526 -14.3504602  15.1350686
 -22.4470474   1.3615398  23.7750686 -22.6970474   0.4535398  23.6050686
 -21.5500474   1.3065398  24.1040686  -8.1120474 -10.2704602  31.0120686
  -8.7890474  -9.7974602  30.5280686  -7.5320474  -9.5844602  31.3450686
  -6.2020474 -14.5234602  14.4030686  -5.7130474 -14.0144602  13.7560686
  -6.1250474 -15.4294602  14.1030686 -17.2940474 -17.6134602  28.4790686
 -16.7800474 -18.1144602  29.1110686 -17.8000474 -18.2734602  28.0040686
   2.3869526 -15.9124602  30.2560686   3.2619526 -16.2474602  30.0600686
   2.0119526 -15.7054602  29.4000686 -12.4020474 -14.3944602  31.4310686
 -11.5620474 -14.7364602  31.1230686 -12.2810474 -14.2744602  32.3730686
 -17.4790474 -12.6044602  23.8630686 -18.3650474 -12.6854602  24.2150686
 -17.5030474 -11.8064602  23.3340686   6.6229526 -20.8294602  13.8930686
   7.2859526 -20.7664602  13.2060686   6.2329526 -21.6954602  13.7710686
  -3.7890474 -10.2084602  24.3530686  -4.1790474 -10.1304602  23.4820686
  -4.1470474  -9.4694602  24.8440686   0.5409526  -4.9154602  28.4370686
   0.0999526  -4.2834602  27.8690686  -0.0670474  -5.0494602  29.1640686
 -21.6670474   3.8525398  21.6060686 -21.0260474   3.2695398  21.1990686
 -22.4690474   3.3325398  21.6540686 -22.3510474 -18.0924602  12.6230686
 -22.0060474 -17.5874602  11.8870686 -23.2900474 -18.1594602  12.4490686
  -4.8930474 -14.5224602  37.7360686  -5.5840474 -14.9684602  38.2250686
  -4.8100474 -15.0244602  36.9250686   2.6509526 -10.3974602  25.9920686
   2.2089526 -10.9324602  26.6510686   1.9489526  -9.8874602  25.5870686
 -21.2140474  -6.9664602  16.1710686 -21.8360474  -7.0164602  15.4440686
 -21.1480474  -7.8654602  16.4920686   3.8329526 -17.9154602  28.3790686
   3.5559526 -17.4464602  27.5920686   3.1369526 -18.5524602  28.5370686
  -3.0140474 -13.7464602  39.7510686  -3.4540474 -14.0114602  38.9430686
  -3.6360474 -13.9604602  40.4450686  -1.6430474 -20.7734602  19.1000686
  -1.5100474 -20.4294602  19.9830686  -2.3180474 -21.4444602  19.2040686
   1.2739526 -17.0994602  39.7920686   1.0099526 -16.5074602  39.0880686
   0.5249526 -17.1114602  40.3890686   4.1109526 -20.9144602  33.8730686
   3.2019526 -21.1564602  33.6940686   4.5489526 -21.7454602  34.0570686
   0.4529526 -16.4844602  22.3320686   0.8549526 -15.6484602  22.0940686
   1.1939526 -17.0644602  22.5100686   2.0659526 -20.5004602  30.6300686
   1.7629526 -20.1324602  29.8000686   1.5659526 -20.0314602  31.2980686
   3.4119526 -14.0364602  34.4590686   3.3919526 -14.7764602  35.0650686
   4.1949526 -13.5444602  34.7070686 -22.7360474  -9.6964602  22.1230686
 -22.4690474  -9.9244602  23.0130686 -22.0100474  -9.1764602  21.7800686
  -6.2560474 -11.9604602  17.6170686  -6.6240474 -12.4274602  16.8660686
  -5.3520474 -12.2684602  17.6720686 -18.1170474   4.2835398  15.7650686
 -18.5570474   5.1075398  15.9770686 -18.8300474   3.6655398  15.6050686
 -22.8790474 -15.1944602  17.8060686 -23.4570474 -15.6354602  17.1820686
 -22.2010474 -14.7924602  17.2620686 -17.4990474 -19.8904602  24.6180686
 -16.5570474 -19.9834602  24.4710686 -17.7900474 -19.2844602  23.9370686
  -1.9310474 -10.1784602  38.6210686  -1.4250474 -10.7904602  39.1550686
  -1.4380474 -10.1094602  37.8030686 -10.8690474 -17.7404602  10.8260686
 -11.4610474 -17.0174602  10.6190686 -10.1940474 -17.6994602  10.1480686
   1.5499526 -19.4424602  28.0830686   1.7879526 -19.3454602  27.1610686
   1.0099526 -20.2324602  28.1100686 -14.3600474 -17.1304602  29.9450686
 -13.7530474 -17.4334602  30.6210686 -15.0950474 -17.7424602  29.9920686
   4.7639526 -14.2994602  39.0100686   5.2829526 -13.5254602  38.7900686
   4.6039526 -14.7294602  38.1700686  -1.6760474 -19.7994602  21.5670686
  -1.8530474 -19.7814602  22.5070686  -1.8120474 -18.8964602  21.2800686
  -0.7930474 -15.3054602  26.9780686  -1.3340474 -14.7114602  27.4980686
  -1.2290474 -15.3454602  26.1270686  -5.8640474 -11.7524602  40.6120686
  -5.9770474 -10.8154602  40.7670686  -5.5500474 -11.8104602  39.7090686
   5.0849526 -19.9854602  19.8130686   4.7589526 -20.7554602  20.2780686
   4.6759526 -20.0354602  18.9490686 -18.7250474  -2.2684602  26.0790686
 -19.6350474  -2.0704602  25.8580686 -18.6730474  -2.1364602  27.0250686
  -1.3380474  -5.4414602  29.9780686  -1.6510474  -4.9744602  30.7520686
  -0.8820474  -6.2074602  30.3270686   1.6789526  -8.7254602  28.5760686
   2.4209526  -9.2374602  28.2530686   2.0789526  -8.0104602  29.0720686
 -20.2140474 -17.4394602  32.3880686 -20.6040474 -17.9424602  31.6730686
 -19.9100474 -16.6314602  31.9730686   7.1219526 -12.1734602  17.8640686
   6.1859526 -12.2754602  18.0360686   7.2619526 -12.6184602  17.0290686
 -10.7700474 -14.0734602  22.7390686  -9.8300474 -14.0984602  22.5600686
 -10.9430474 -14.8794602  23.2250686   5.0839526 -12.5944602  29.2300686
   5.9749526 -12.7424602  29.5490686   4.5319526 -13.1214602  29.8080686
   3.0249526  -0.4304602  39.4530686   2.5199526  -0.5114602  38.6450686
   3.5269526   0.3775398  39.3430686 -20.2730474 -12.6024602  19.1510686
 -19.8500474 -12.4004602  19.9860686 -21.1390474 -12.2014602  19.2180686
 -20.9430474 -13.2774602  28.9440686 -20.0920474 -12.8734602  29.1120686
 -21.5010474 -12.9674602  29.6570686   4.5939526 -15.5714602  23.1930686
   4.7249526 -16.3964602  22.7250686   4.5229526 -14.9124602  22.5020686
 -16.8440474 -18.0244602  13.8520686 -17.1970474 -17.1604602  14.0660686
 -17.5340474 -18.4434602  13.3370686  -2.7470474 -18.2804602  17.6910686
  -2.1210474 -18.8464602  18.1440686  -3.4810474 -18.1994602  18.2990686
 -17.0230474 -11.2484602  15.8810686 -17.2740474 -10.6924602  16.6190686
 -17.0370474 -10.6634602  15.1240686  -0.7450474 -13.7614602  19.1520686
   0.1689526 -14.0454602  19.1200686  -0.7820474 -13.0054602  18.5660686
   4.2009526 -13.6064602  21.2760686   3.7599526 -12.8694602  21.6990686
   4.3759526 -13.3014602  20.3850686   1.5209526 -13.2964602  10.6830686
   2.0899526 -12.6964602  10.2010686   2.0399526 -13.5604602  11.4430686
  -2.4640474 -15.8044602  16.4680686  -2.2200474 -16.5904602  16.9560686
  -1.6290474 -15.4294602  16.1850686 -18.8110474  -4.2954602  31.4210686
 -19.3520474  -3.8994602  30.7380686 -18.1250474  -3.6484602  31.5890686
  -7.8390474 -18.4194602  22.4900686  -6.9790474 -18.8274602  22.3870686
  -8.3330474 -19.0334602  23.0340686 -21.6550474 -14.7184602  24.6800686
 -22.5430474 -14.7914602  25.0270686 -21.3620474 -13.8484602  24.9500686
 -21.7060474  -3.1974602  18.6760686 -21.1230474  -3.0694602  19.4250686
 -22.4960474  -3.5874602  19.0500686 -12.0590474  -3.4864602  31.0810686
 -11.3930474  -3.6524602  30.4140686 -12.2170474  -4.3414602  31.4810686
   1.8779526 -19.4144602  16.4160686   1.2739526 -20.1574602  16.4290686
   2.7479526 -19.8134602  16.4210686 -17.7410474  -7.0104602  26.8950686
 -17.0690474  -7.0924602  27.5710686 -18.4900474  -6.6214602  27.3460686
  -0.0630474  -7.1454602  39.8030686   0.1629526  -6.2354602  39.9980686
  -0.5700474  -7.0974602  38.9930686   1.5949526 -17.7434602  18.8540686
   1.7559526 -18.4034602  18.1800686   2.4589526 -17.5664602  19.2280686
  -1.4890474 -15.5704602  24.2430686  -2.1650474 -15.0754602  23.7800686
  -0.8710474 -15.8294602  23.5590686 -18.5040474 -10.6594602  11.5650686
 -19.2100474 -10.0864602  11.8640686 -17.7860474 -10.4954602  12.1770686
   4.3279526 -16.5594602  18.5780686   4.4809526 -15.6384602  18.7910686
   4.6509526 -16.6544602  17.6820686   1.2289526 -12.5584602  34.8930686
   0.5529526 -13.0994602  34.4860686   2.0109526 -13.1104602  34.8930686
  -0.0610474  -7.9574602  30.4770686   0.6509526  -8.2584602  29.9120686
  -0.8030474  -8.5164602  30.2460686   0.3489526 -21.0604602  24.7420686
   0.7939526 -21.7674602  24.2750686   1.0389526 -20.4244602  24.9290686
 -21.9950474  -9.3314602  14.0300686 -22.1430474  -8.6694602  13.3550686
 -22.6650474  -9.9954602  13.8660686  -6.6480474 -15.8664602  22.3220686
  -5.7540474 -16.1764602  22.4620686  -7.1830474 -16.6594602  22.3430686
   2.3509526 -19.0074602  25.6670686   3.2499526 -19.3314602  25.7310686
   2.2029526 -18.8944602  24.7280686  -4.5130474 -19.7624602  15.0240686
  -4.7380474 -20.4974602  15.5940686  -3.5570474 -19.7224602  15.0510686
   5.0789526 -12.3164602  35.9360686   5.6699526 -12.2654602  36.6870686
   4.5659526 -11.5094602  35.9790686  -3.0000474 -13.1624602  20.5830686
  -3.0000474 -12.2784602  20.2160686  -2.2960474 -13.6144602  20.1200686
  -0.2180474 -10.1594602  36.6690686  -0.1460474 -10.9734602  36.1700686
   0.6739526  -9.9814602  36.9680686  -4.3560474  -2.6034602  35.1990686
  -4.1160474  -3.2294602  35.8830686  -3.5570474  -2.1014602  35.0420686
 -21.9310474  -9.7454602  16.9830686 -22.1040474  -9.9604602  16.0660686
 -22.0720474 -10.5674602  17.4530686  -4.3650474 -15.2944602  19.4630686
  -4.2230474 -15.2244602  18.5190686  -4.0510474 -14.4624602  19.8160686
  -5.3270474 -19.4124602  22.2160686  -5.3740474 -19.6044602  23.1530686
  -5.4680474 -20.2574602  21.7910686   0.1779526 -15.4844602  12.8030686
   0.2079526 -14.5664602  13.0720686  -0.3330474 -15.4814602  11.9940686
   0.1829526 -16.9484602  37.1340686   0.8829526 -17.3764602  36.6420686
  -0.4540474 -16.6884602  36.4690686   7.0899526 -18.2174602  19.2520686
   6.3779526 -18.8424602  19.3890686   6.7139526 -17.3694602  19.4860686
 -14.9870474 -20.6004602  17.5780686 -14.5240474 -20.1254602  18.2680686
 -15.2980474 -19.9174602  16.9840686   3.1529526 -15.3274602  13.3900686
   3.8659526 -15.0534602  12.8130686   2.5659526 -15.8284602  12.8240686
   5.4559526 -16.0624602  29.8180686   5.8939526 -15.5364602  29.1490686
   5.1499526 -16.8394602  29.3500686  -9.2040474 -20.7214602  39.3110686
 -10.1010474 -20.8544602  39.6160686  -8.6650474 -20.8374602  40.0940686
  -1.9680474 -17.1454602  28.2720686  -2.3280474 -17.6234602  27.5250686
  -1.3860474 -16.4934602  27.8810686  -3.3580474  -8.0744602  39.8370686
  -3.2890474  -8.5964602  40.6370686  -2.9710474  -8.6254602  39.1570686
   0.9039526  -4.7404602  40.2310686   0.8669526  -4.1474602  40.9810686
   1.7449526  -4.5504602  39.8150686 -20.3070474  -5.1444602  38.1220686
 -20.5410474  -5.4874602  37.2600686 -19.3750474  -5.3444602  38.2150686
  -1.4900474  -8.3224602  34.7710686  -1.2890474  -9.1884602  35.1270686
  -1.6310474  -8.4734602  33.8370686   1.4739526  -5.0784602  37.0370686
   1.5889526  -4.1924602  36.6950686   1.1279526  -4.9514602  37.9210686
   6.2659526 -11.1514602  33.0020686   5.3739526 -10.9414602  32.7250686
   6.1839526 -11.3674602  33.9310686   4.6059526  -9.8804602  29.3440686
   4.6749526 -10.8334602  29.2840686   4.6949526  -9.6914602  30.2780686
 -21.9340474  -7.6064602  37.3130686 -21.6320474  -7.5194602  38.2170686
 -21.1660474  -7.9144602  36.8320686   1.2029526 -19.7944602  38.6320686
   1.8709526 -20.0994602  38.0180686   1.4959526 -18.9204602  38.8900686
 -22.2270474 -17.0484602  37.0970686 -22.0880474 -17.1944602  36.1620686
 -22.0330474 -16.1204602  37.2270686 -19.9930474 -11.2734602  33.4370686
 -20.5840474 -10.7054602  32.9420686 -19.4100474 -10.6694602  33.8970686
  -1.7160474 -16.5294602  34.9250686  -2.5600474 -16.2654602  35.2900686
  -1.6540474 -17.4654602  35.1150686   3.6339526 -15.9504602  36.4560686
   2.9109526 -16.5634602  36.3230686   4.4129526 -16.4354602  36.1830686
 -20.2610474 -14.4574602  33.8470686 -19.9940474 -13.6454602  33.4150686
 -20.8060474 -14.9054602  33.1990686   4.0989526 -13.7754602  31.4270686
   4.2539526 -13.9624602  32.3530686   3.2649526 -14.2044602  31.2330686
 -19.6750474  -2.8314602  35.3080686 -20.3000474  -3.5554602  35.3320686
 -18.8270474  -3.2384602  35.4850686 -17.7270474  -6.2844602  39.2480686
 -17.6600474  -6.8834602  38.5050686 -16.8190474  -6.1124602  39.4990686
  -0.7230474 -14.1804602  33.7510686  -0.2770474 -14.2994602  32.9130686
  -0.9250474 -15.0694602  34.0440686   3.1729526  -6.5534602  33.4290686
   3.9199526  -6.9604602  32.9900686   3.2579526  -6.8204602  34.3440686
 -21.1960474 -16.7814602  14.7440686 -21.5170474 -17.1984602  13.9440686
 -21.8240474 -17.0404602  15.4180686 -16.7480474   0.0015398  35.8960686
 -16.2870474   0.7795398  35.5830686 -16.1090474  -0.7064602  35.8100686
   4.9789526 -18.5904602  11.3060686   4.2289526 -19.1634602  11.4670686
   4.6609526 -17.7134602  11.5170686  -5.3210474 -15.5844602  32.3820686
  -4.9830474 -16.4784602  32.4320686  -4.6700474 -15.1094602  31.8650686
  -4.2770474 -17.7364602  38.2160686  -3.4640474 -18.2344602  38.1310686
  -4.3240474 -17.5094602  39.1450686   6.3079526  -9.8194602  36.7980686
   6.4759526 -10.3754602  37.5590686   6.6659526  -8.9654602  37.0410686
  -2.8420474 -14.9274602  31.1940686  -2.4990474 -15.7894602  30.9590686
  -2.0630474 -14.3924602  31.3460686   6.5039526 -18.3634602  26.5890686
   6.3269526 -19.1444602  27.1140686   5.9969526 -17.6704602  27.0130686
   3.2319526  -9.1314602  38.1440686   2.5229526  -9.2964602  38.7650686
   3.9929526  -8.9414602  38.6920686  -5.0300474 -13.9044602  34.6390686
  -5.1520474 -14.8534602  34.6090686  -5.8940474 -13.5584602  34.8650686
  -1.3460474  -5.8464602  35.9370686  -0.6680474  -6.0264602  36.5880686
  -1.5230474  -6.6964602  35.5330686   6.9399526 -18.9354602  39.2250686
   6.4019526 -18.6054602  39.9440686   6.8099526 -18.3034602  38.5180686
   1.0909526 -16.8224602  15.5880686   0.9749526 -17.0064602  14.6560686
   1.3379526 -17.6644602  15.9700686   5.7879526 -16.5484602  34.4900686
   6.3189526 -15.8644602  34.8990686   6.3609526 -17.3144602  34.4650686
 -20.3930474 -17.7384602  39.5110686 -20.5700474 -16.7994602  39.5540686
 -20.9050474 -18.0464602  38.7630686 -13.0200474  -9.7234602  27.6960686
 -12.7090474 -10.3054602  28.3890686 -12.7870474 -10.1734602  26.8830686
 -20.6560474  -5.5674602  35.2290686 -21.4170474  -6.0604602  34.9240686
 -19.9030474  -6.0774602  34.9300686  -2.7740474  -5.3094602  39.4950686
  -2.9880474  -6.2244602  39.3160686  -2.3330474  -5.3274602  40.3450686
  -2.9070474 -12.3254602  33.9260686  -2.1090474 -12.8534602  33.9730686
  -3.6060474 -12.9244602  34.1900686   0.6959526  -8.8084602  24.7100686
   0.3969526  -8.9014602  23.8060686   0.9559526  -7.8904602  24.7840686
  -0.9830474  -3.0704602  37.9410686  -1.2240474  -2.3114602  38.4720686
  -1.7040474  -3.6884602  38.0630686  -2.2500474  -0.8754602  39.0700686
  -2.1030474  -0.5964602  39.9730686  -2.3450474  -0.0594602  38.5780686
   0.1869526 -14.4354602  31.2490686   0.6619526 -13.7394602  30.7950686
   0.6729526 -15.2334602  31.0390686 -22.7890474 -14.3554602  35.5530686
 -21.9090474 -14.2214602  35.1990686 -23.2320474 -13.5174602  35.4180686
  -1.6270474 -17.3164602  20.7540686  -0.7390474 -17.0984602  21.0370686
  -1.9530474 -16.5124602  20.3480686 -17.6320474  -9.9734602  18.0650686
 -18.0650474 -10.6064602  18.6390686 -17.3350474  -9.2804602  18.6540686
 -16.8580474 -15.4904602  23.5070686 -16.1480474 -15.6034602  22.8750686
 -16.9300474 -14.5434602  23.6210686   2.9679526  -7.3104602  35.8990686
   3.0099526  -7.9324602  36.6260686   2.4439526  -6.5844602  36.2360686
 -22.4010474 -11.7634602  24.4150686 -23.0830474 -11.7484602  25.0870686
 -22.6850474 -12.4404602  23.8000686  -0.9030474  -7.5824602  26.6350686
  -0.2620474  -8.1504602  26.2070686  -0.4200474  -7.1784602  27.3560686
  -1.5590474   2.0545398  37.6720686  -0.8580474   2.6085398  37.3280686
  -2.0900474   2.6435398  38.2070686 -19.7730474  -5.6204602  27.9590686
 -19.6220474  -4.7934602  28.4160686 -20.5860474  -5.4814602  27.4730686
   1.2039526 -17.8134602  31.6400686   1.6779526 -17.0534602  31.3010686
   1.6319526 -18.0104602  32.4730686 -23.0360474 -12.3014602  37.9670686
 -22.4700474 -12.0324602  37.2430686 -22.4570474 -12.7804602  38.5600686
  -9.1680474 -15.0764602  26.1560686  -8.6650474 -14.6814602  25.4440686
  -9.4820474 -14.3314602  26.6690686   5.2779526  -9.0124602  39.8660686
   6.1279526  -8.5734602  39.8620686   5.2949526  -9.5614602  40.6500686
 -18.9960474  -7.2134602  30.6130686 -19.5860474  -6.4834602  30.7980686
 -19.0400474  -7.3224602  29.6630686  -3.5570474 -12.4344602  30.4820686
  -3.9400474 -11.6314602  30.8350686  -3.7980474 -13.1134602  31.1130686
  -5.6940474 -19.2874602  24.7800686  -5.4530474 -19.8454602  25.5200686
  -5.9140474 -18.4444602  25.1770686 -17.4490474  -7.2124602  36.6540686
 -18.0590474  -7.8474602  36.2770686 -16.6420474  -7.7074602  36.7910686
 -16.7340474 -17.8834602  34.3780686 -15.8780474 -18.0954602  34.7510686
 -17.2830474 -17.6844602  35.1360686 -22.2590474  -7.4054602  34.0420686
 -23.1980474  -7.5814602  34.0980686 -21.9290474  -8.0584602  33.4250686
 -20.8560474  -9.0244602  32.1890686 -20.1320474  -8.4804602  31.8800686
 -21.5910474  -8.7904602  31.6230686   4.5639526 -13.2334602  17.8940686
   4.1689526 -12.4734602  17.4660686   4.5429526 -13.9204602  17.2280686
 -18.2710474 -13.3234602  10.8780686 -18.3600474 -12.3874602  11.0570686
 -17.3300474 -13.4894602  10.9330686 -19.3310474 -16.2354602  25.2400686
 -18.6230474 -15.7824602  24.7810686 -20.0630474 -15.6184602  25.2210686
  -8.5420474 -12.9344602  31.0080686  -8.4830474 -11.9824602  31.0850686
  -8.5120474 -13.1014602  30.0660686 -20.4760474   7.9185398  31.8390686
 -21.1430474   7.2335398  31.8210686 -20.7660474   8.5535398  31.1840686
  -3.2700474  -4.4664602  32.1830686  -2.6350474  -4.2714602  32.8720686
  -3.5030474  -3.6114602  31.8210686   4.2249526  -9.1474602  31.9490686
   3.4439526  -9.6344602  32.2120686   4.7949526  -9.1734602  32.7170686
 -21.2000474 -16.9704602  27.8790686 -21.6420474 -17.4164602  27.1560686
 -21.8290474 -16.3124602  28.1750686 -19.1240474 -18.3904602  16.0580686
 -18.1700474 -18.3134602  16.0910686 -19.4070474 -17.6454602  15.5280686
  -0.6000474 -11.1734602  32.2810686  -1.1890474 -10.4234602  32.1910686
  -1.1470474 -11.8634602  32.6580686  -3.3560474 -21.4704602  27.7540686
  -3.0580474 -21.1804602  26.8920686  -4.2300474 -21.0924602  27.8460686
  -6.6730474 -18.9364602  17.5530686  -6.4120474 -19.8124602  17.2700686
  -5.8530474 -18.5094602  17.7990686  -5.0550474 -17.8804602  19.3400686
  -4.8880474 -16.9504602  19.4960686  -5.2150474 -18.2454602  20.2100686
  -1.2110474 -21.5174602  29.9230686  -0.5990474 -21.7314602  29.2180686
  -1.9540474 -21.1084602  29.4790686  -1.7960474 -19.4184602  15.2560686
  -1.7990474 -18.8694602  16.0410686  -1.3490474 -18.8894602  14.5950686
  -0.9020474 -11.3894602  26.7370686  -0.9270474 -11.2104602  25.7960686
  -0.0220474 -11.7344602  26.8920686 -21.8770474   4.0745398  24.4880686
 -22.7010474   3.7105398  24.8100686 -21.6790474   3.5625398  23.7040686
 -20.9760474   8.1585398  29.1590686 -20.6630474   7.2545398  29.1720686
 -21.3990474   8.2535398  28.3050686 -21.7540474  -3.0684602  30.5570686
 -22.6390474  -2.7484602  30.3830686 -21.8750474  -3.9834602  30.8120686
 -20.8300474   6.8045398  14.0250686 -21.2620474   7.2455398  13.2940686
 -20.4430474   7.5145398  14.5380686 -20.1740474   1.7125398  32.2210686
 -20.0210474   2.0815398  31.3520686 -20.3630474   2.4705398  32.7740686
   2.3189526 -18.2824602  22.9270686   1.9459526 -18.8894602  22.2880686
   3.1749526 -18.0504602  22.5670686 -19.8570474   5.2385398  26.0890686
 -20.4980474   4.7645398  25.5600686 -19.7940474   6.0995398  25.6760686
 -21.7020474   2.8495398  39.4930686 -22.1580474   2.0595398  39.7820686
 -20.7910474   2.5755398  39.3850686  -2.9690474   4.4335398  38.8970686
  -3.8550474   4.7895398  38.8340686  -2.5280474   4.7455398  38.1070686
   2.6059526 -19.3884602  12.7910686   1.7869526 -18.8954602  12.7460686
   2.3689526 -20.2104602  13.2200686  -4.7480474 -10.0814602  28.6480686
  -4.7970474  -9.8404602  29.5730686  -3.8820474  -9.7844602  28.3690686
 -11.1150474 -17.3484602  25.9830686 -11.8520474 -17.1424602  26.5590686
 -10.4130474 -16.7674602  26.2750686 -22.0270474  -5.6364602  31.5130686
 -21.8900474  -5.8824602  32.4280686 -22.8670474  -6.0334602  31.2810686
 -15.7760474   2.1005398  28.0340686 -15.9500474   2.9125398  27.5600686
 -15.4270474   1.5045398  27.3710686 -18.0970474  -0.9244602  30.8510686
 -18.0110474   0.0035398  31.0690686 -18.0230474  -1.3764602  31.6910686
  -5.8560474   5.3315398  38.7220686  -6.5170474   5.5795398  39.3680686
  -6.3580474   4.9645398  37.9940686  -6.8630474 -16.9654602  26.2880686
  -6.8290474 -17.0194602  27.2430686  -7.4570474 -16.2354602  26.1110686
 -20.0300474   5.9335398  22.7840686 -20.8860474   5.5085398  22.7320686
 -19.6420474   5.8005398  21.9200686 -22.7390474   4.3425398  14.1590686
 -22.3070474   3.8005398  13.4980686 -22.0660474   4.9635398  14.4370686
   4.4469526 -20.3494602  16.7840686   4.7209526 -19.8664602  16.0040686
   5.1039526 -21.0384602  16.8830686 -13.0120474   6.7945398  28.0850686
 -12.3620474   6.0935398  28.0380686 -13.8490474   6.3575398  27.9270686
 -22.2870474   3.5555398  30.3430686 -21.3590474   3.3385398  30.4300686
 -22.3190474   4.1865398  29.6250686 -10.6400474  -5.1044602  39.2930686
  -9.9590474  -4.4324602  39.3230686 -10.4560474  -5.5974602  38.4930686
 -21.9890474   8.4295398  20.4650686 -21.4910474   7.8685398  19.8690686
 -22.8320474   8.5535398  20.0290686 -22.7810474 -21.2504602  16.6610686
 -22.7760474 -21.3224602  15.7060686 -22.2360474 -21.9784602  16.9590686
   0.7279526   7.6545398  37.8910686   0.9529526   7.1265398  38.6570686
   0.8049526   8.5595398  38.1930686  -5.1070474 -20.0314602  12.5320686
  -5.0920474 -20.2214602  13.4700686  -4.9140474 -20.8714602  12.1140686
 -15.0640474 -16.8754602  39.3480686 -14.6890474 -16.7904602  40.2240686
 -15.5470474 -17.7014602  39.3720686 -22.3590474   1.5035398  18.9030686
 -22.7240474   1.9085398  18.1170686 -23.0530474   1.5815398  19.5580686
  -1.8180474 -18.6824602  38.2350686  -1.2810474 -19.2634602  38.7740686
  -1.2040474 -18.0264602  37.9040686   6.0159526  -2.1744602  39.6300686
   5.5839526  -2.4994602  38.8400686   6.8349526  -2.6664602  39.6760686
  -0.4570474   1.3025398  34.9040686   0.3799526   1.7675398  34.9240686
  -0.9890474   1.7925398  34.2770686   6.8289526 -20.2794602  33.2440686
   7.0619526 -20.9314602  32.5830686   5.8869526 -20.3944602  33.3730686
  -8.2960474   2.7805398  39.3850686  -9.1540474   3.2035398  39.4060686
  -7.8210474   3.2345398  38.6890686 -21.4260474  -1.0164602  36.6380686
 -20.9190474  -1.6454602  36.1240686 -22.0320474  -0.6254602  36.0080686
   3.4909526 -11.4004602  40.1870686   3.4709526 -10.8494602  40.9690686
   3.3429526 -10.7924602  39.4620686   3.5419526  -3.2864602  34.4970686
   3.6879526  -2.4554602  34.0460686   2.6069526  -3.4604602  34.3860686
   3.7179526 -16.3604602  40.6730686   2.8939526 -16.7574602  40.3910686
   3.7129526 -15.4904602  40.2740686 -20.0670474   4.1825398  33.6660686
 -19.1410474   3.9675398  33.5510686 -20.0620474   5.0385398  34.0950686
   0.9669526   0.2365398  37.6970686   1.6529526   0.7175398  37.2350686
   0.1829526   0.7755398  37.5890686   3.1539526  -3.9914602  39.3880686
   3.8439526  -4.6214602  39.1830686   3.5149526  -3.1454602  39.1230686
   4.8999526  -3.6114602  37.1550686   4.4499526  -3.2254602  36.4040686
   4.9609526  -4.5434602  36.9450686  -2.0870474  -1.0904602  35.0630686
  -1.4680474  -0.3634602  35.1280686  -2.1000474  -1.3114602  34.1310686
   3.2069526 -20.8524602  37.0560686   2.9769526 -21.4414602  36.3380686
   3.9999526 -21.2324602  37.4340686   1.1879526  -9.2734602  39.9020686
   0.7949526  -8.4004602  39.8940686   0.4509526  -9.8664602  40.0520686
 -19.1140474 -18.8894602  12.0530686 -19.7510474 -18.4314602  11.5040686
 -19.6410474 -19.4754602  12.5950686   1.3599526   7.6855398  35.1800686
   1.3769526   7.4195398  36.0990686   1.5599526   6.8855398  34.6950686
  -3.5130474   1.2985398  35.7550686  -3.4020474   0.5765398  35.1360686
  -2.7980474   1.1905398  36.3810686  -2.1720474 -17.6274602  30.7640686
  -2.0470474 -17.5774602  29.8170686  -1.3010474 -17.4764602  31.1300686
  -6.0740474 -20.3194602  37.6070686  -5.4340474 -20.9344602  37.9670686
  -5.7870474 -19.4624602  37.9220686 -19.7370474   8.1685398  34.3820686
 -20.0150474   7.9705398  33.4880686 -19.3010474   9.0185398  34.3160686
   1.5119526 -12.1134602  30.6330686   2.3429526 -11.8984602  31.0570686
   0.8439526 -11.7724602  31.2280686 -20.2060474  -0.3684602  11.0520686
 -21.0470474   0.0895398  11.0610686 -20.0200474  -0.5084602  10.1230686
   1.0479526 -19.8624602  33.8790686   0.1739526 -19.5834602  34.1540686
   1.0909526 -20.7884602  34.1180686   5.8959526  -5.4034602  39.5560686
   6.5049526  -4.6744602  39.4410686   6.4569526  -6.1744602  39.6390686
   6.4479526 -15.0634602  32.2590686   6.0589526 -15.3584602  31.4360686
   6.1159526 -15.6764602  32.9150686 -17.8710474  -1.2694602  33.8350686
 -17.4770474  -0.7234602  34.5150686 -18.6770474  -1.6014602  34.2310686
   1.6559526   6.3835398  40.1050686   2.0179526   5.5385398  39.8390686
   2.2719526   6.7135398  40.7590686  -0.5940474 -20.9264602  10.5370686
  -0.0610474 -21.2034602  11.2820686   0.0419526 -20.7124602   9.8540686
 -20.8460474 -19.0874602  30.1570686 -20.8740474 -18.4284602  29.4630686
 -21.5180474 -19.7234602  29.9120686 -22.0410474 -15.3124602  11.4220686
 -21.7120474 -14.8584602  10.6460686 -21.2970474 -15.3314602  12.0230686
 -18.3470474   4.3325398  36.4910686 -19.2820474   4.4985398  36.6080686
 -18.2090474   3.4615398  36.8650686 -12.9090474   4.7035398  32.4860686
 -12.0820474   4.2325398  32.5910686 -12.6490474   5.6155398  32.3500686
  -9.7960474   7.7175398  28.6210686  -9.4890474   7.1285398  27.9320686
 -10.5650474   8.1455398  28.2450686  -3.5080474  -4.5254602  43.9790686
  -3.6030474  -5.4034602  44.3490686  -4.2730474  -4.4204602  43.4140686
 -15.9460474   5.7445398  44.6500686 -16.6510474   5.1875398  44.9800686
 -15.9210474   6.4835398  45.2580686 -17.0310474 -14.5604602  49.2180686
 -17.4960474 -15.3574602  48.9650686 -17.0070474 -14.0334602  48.4190686
 -22.2740474  -7.4564602  49.0530686 -23.0970474  -7.1364602  48.6810686
 -22.0010474  -8.1574602  48.4620686 -11.6840474 -10.1814602  46.2210686
 -12.2680474  -9.7314602  46.8310686 -11.2310474 -10.8324602  46.7570686
  -0.8300474 -12.0254602  46.8530686  -0.9190474 -11.7914602  45.9290686
  -0.1710474 -11.4184602  47.1910686   5.1269526 -15.9664602  46.0660686
   4.1869526 -15.8464602  45.9300686   5.3059526 -16.8504602  45.7470686
  -4.5470474  -0.1704602  41.1980686  -5.2010474   0.5195398  41.0840686
  -4.6310474  -0.7124602  40.4140686 -12.2250474  -5.5454602  47.1820686
 -11.7760474  -4.7044602  47.2660686 -13.0330474  -5.4364602  47.6840686
 -20.5210474  -0.7594602  44.3630686 -19.7280474  -0.2234602  44.3640686
 -20.2370474  -1.6094602  44.6990686  -9.3800474  -6.8514602  41.0520686
 -10.0090474  -7.5524602  41.2230686  -9.8320474  -6.2664602  40.4440686
 -11.1500474   1.5885398  49.0600686 -11.2200474   2.3525398  48.4890686
 -10.8340474   0.8885398  48.4880686  -8.3790474   4.5195398  42.4080686
  -7.7550474   4.5135398  41.6820686  -7.9380474   4.0345398  43.1060686
 -21.3210474 -13.6614602  45.6550686 -20.9970474 -14.4494602  45.2200686
 -20.5350474 -13.2354602  45.9980686  -7.7550474 -20.8494602  49.3890686
  -8.1450474 -20.1014602  48.9370686  -7.8200474 -21.5694602  48.7620686
   5.6249526  -5.9584602  48.1600686   5.5389526  -5.3804602  47.4020686
   5.2779526  -5.4484602  48.8920686 -14.5560474 -15.1454602  44.0190686
 -13.8920474 -14.6234602  43.5690686 -14.9220474 -14.5524602  44.6760686
 -15.1160474  -7.7594602  47.6090686 -15.7510474  -8.0204602  48.2760686
 -14.5450474  -8.5214602  47.5100686  -0.4550474 -17.9244602  43.1810686
  -1.2280474 -17.9544602  42.6170686  -0.1120474 -17.0374602  43.0700686
 -11.7180474   4.7675398  42.0750686 -11.6590474   5.7175398  42.1770686
 -11.2710474   4.4155398  42.8440686  -8.3770474  -2.0034602  48.3240686
  -8.8890474  -2.5684602  48.9020686  -9.0030474  -1.3494602  48.0120686
 -17.9930474  -7.4494602  46.5710686 -17.6670474  -8.2484602  46.9860686
 -18.5140474  -7.0214602  47.2500686 -19.9100474   2.1915398  45.5100686
 -20.3500474   1.6015398  46.1220686 -19.1190474   1.7205398  45.2480686
 -15.5330474   7.2825398  42.1970686 -16.2290474   6.7575398  41.8020686
 -15.6230474   7.1305398  43.1380686  -7.2200474  -2.9224602  45.0660686
  -7.0430474  -2.9264602  44.1260686  -6.6620474  -3.6164602  45.4180686
 -16.9030474 -20.6494602  44.9800686 -16.0540474 -21.0584602  44.8110686
 -16.7490474 -19.7144602  44.8480686 -13.4980474 -12.8084602  47.0810686
 -13.0090474 -13.0744602  47.8600686 -12.8910474 -12.2474602  46.5980686
 -14.2470474   1.5555398  46.2440686 -13.7460474   1.1735398  46.9650686
 -13.6050474   1.6805398  45.5450686 -10.7190474 -18.5024602  47.1660686
 -10.3270474 -18.0224602  47.8960686 -10.0840474 -19.1894602  46.9610686
 -18.4200474 -17.2144602  49.1280686 -19.0910474 -17.8524602  49.3680686
 -18.1580474 -17.4624602  48.2420686 -10.2940474 -18.7874602  43.1630686
 -10.6620474 -18.4174602  42.3610686  -9.6350474 -18.1504602  43.4410686
  -9.3050474 -11.8364602  43.6850686  -8.8280474 -12.5834602  44.0450686
  -8.6890474 -11.1054602  43.7480686 -12.2290474 -10.2444602  40.9920686
 -11.9470474  -9.5644602  40.3800686 -12.3160474  -9.7904602  41.8310686
 -16.7120474   7.2565398  47.9090686 -17.2870474   7.7925398  48.4540686
 -15.9710474   7.8275398  47.7060686  -0.7510474  -9.5484602  49.2110686
  -0.7070474  -8.5974602  49.1190686  -0.0920474  -9.8804602  48.6010686
 -12.7670474 -12.9854602  43.4630686 -12.1100474 -12.9244602  42.7700686
 -12.3160474 -12.6764602  44.2490686 -10.3940474 -12.1374602  47.5610686
  -9.9860474 -12.5734602  46.8120686 -10.2920474 -12.7564602  48.2840686
 -14.4080474 -17.3914602  49.1290686 -14.0470474 -17.0754602  48.3010686
 -13.9290474 -18.2014602  49.3060686 -18.7380474 -13.4894602  47.0750686
 -19.3100474 -13.1984602  47.7850686 -18.5870474 -12.7034602  46.5500686
 -15.2640474  -5.9404602  41.0780686 -14.7720474  -6.6234602  41.5330686
 -14.7600474  -5.1404602  41.2280686 -13.1380474 -18.6454602  46.1580686
 -12.2890474 -18.7944602  46.5760686 -13.1100474 -19.1744602  45.3610686
  -3.1340474  -4.5084602  47.3100686  -3.2840474  -3.7334602  46.7700686
  -3.7800474  -4.4404602  48.0130686 -13.4150474  -5.5984602  44.3910686
 -13.1440474  -5.7304602  45.3000686 -13.0040474  -4.7724602  44.1360686
 -10.5800474   1.9095398  44.5490686 -11.3390474   1.3935398  44.2780686
  -9.8350474   1.4765398  44.1330686 -19.0540474   6.7375398  46.6270686
 -19.3770474   7.5925398  46.3420686 -18.1700474   6.9095398  46.9490686
  -3.9190474 -13.1824602  46.4860686  -3.0010474 -13.1514602  46.7570686
  -4.0650474 -14.0944602  46.2370686 -17.1070474  -5.4514602  44.8290686
 -16.3150474  -5.8874602  44.5150686 -17.2920474  -5.8684602  45.6710686
  -7.2750474  -9.8784602  44.2400686  -6.4550474 -10.3554602  44.3630686
  -7.4460474  -9.4704602  45.0900686 -14.0220474  -1.1134602  42.1160686
 -14.6270474  -1.7514602  42.4940686 -14.1380474  -0.3274602  42.6500686
  -9.4660474 -20.9654602  45.6420686  -8.6490474 -20.9864602  46.1390686
  -9.1920474 -21.0194602  44.7260686 -11.0490474 -12.6584602  41.3350686
 -11.4370474 -11.8274602  41.0630686 -10.1050474 -12.5034602  41.3090686
  -8.1780474 -16.4994602  47.2530686  -7.6220474 -17.2754602  47.1840686
  -7.6420474 -15.8604602  47.7230686  -3.1060474 -10.5764602  49.3360686
  -2.2030474 -10.2674602  49.2580686  -3.6210474  -9.9404602  48.8390686
  -9.2340474  -9.4894602  48.8280686  -9.9520474  -9.0824602  49.3140686
  -9.5190474 -10.3924602  48.6910686 -19.7120474  -6.2424602  48.5120686
 -20.3100474  -6.1154602  47.7760686 -20.1840474  -6.8224602  49.1080686
  -9.9570474  -3.3384602  45.2280686 -10.0840474  -3.0514602  46.1320686
  -9.0240474  -3.2024602  45.0620686 -17.6210474  -4.9324602  41.7610686
 -16.7120474  -5.1284602  41.9900686 -17.8150474  -5.5184602  41.0300686
  -4.9460474 -16.7514602  40.8510686  -5.8580474 -16.4834602  40.9670686
  -4.7120474 -17.1704602  41.6800686 -16.8280474  -9.7734602  43.6430686
 -17.6480474  -9.2804602  43.6060686 -16.1900474  -9.1514602  43.9920686
 -11.0300474  -9.5884602  43.6570686 -11.3140474  -9.5664602  44.5700686
 -10.6260474 -10.4494602  43.5510686 -16.5280474 -17.6514602  46.7950686
 -16.0860474 -17.3684602  47.5950686 -16.1330474 -17.1214602  46.1020686
  -1.9170474  -4.7124602  42.0030686  -1.5600474  -3.8384602  41.8440686
  -2.5050474  -4.5994602  42.7490686  -8.0110474   5.0395398  49.3840686
  -8.0740474   5.2955398  50.3050686  -8.0630474   4.0835398  49.3970686
  -4.9360474 -11.3334602  44.8570686  -4.3460474 -10.5894602  44.9820686
  -4.6840474 -11.9564602  45.5380686 -14.9080474  -7.7284602  44.8040686
 -14.2260474  -7.1144602  44.5330686 -14.9840474  -7.6014602  45.7500686
 -14.4040474   8.0205398  45.2370686 -13.6500474   8.2865398  44.7100686
 -14.2480474   8.4165398  46.0940686  -5.0530474 -15.7324602  46.8370686
  -4.1360474 -15.9174602  46.6350686  -5.5420474 -16.1224602  46.1130686
 -13.2600474  -9.6874602  48.3930686 -12.5060474  -9.2514602  48.7900686
 -13.6320474 -10.2154602  49.0990686 -15.0860474 -11.8244602  42.4190686
 -14.2110474 -12.1344602  42.6510686 -15.5400474 -11.7354602  43.2570686
   4.2229526  -8.0394602  47.0930686   3.3029526  -7.8054602  46.9710686
   4.6209526  -7.2554602  47.4710686 -17.5340474 -15.6784602  45.0570686
 -16.9720474 -14.9364602  44.8340686 -17.7830474 -15.5254602  45.9690686
   0.6769526 -10.2534602  43.8580686  -0.2150474  -9.9074602  43.8400686
   1.2019526  -9.5854602  43.4170686  -5.8510474 -17.2384602  44.2110686
  -5.5870474 -18.1014602  44.5300686  -6.5770474 -17.4164602  43.6120686
   5.9209526 -14.2574602  42.8050686   5.9599526 -14.5514602  43.7150686
   6.6299526 -14.7324602  42.3700686 -17.2360474   2.0905398  40.5990686
 -16.8150474   2.3395398  41.4220686 -16.5260474   1.7355398  40.0650686
 -19.8820474  -3.2614602  41.9500686 -19.7530474  -2.3134602  41.9790686
 -19.0370474  -3.6104602  41.6690686 -19.3550474  -8.7474602  43.7920686
 -20.1880474  -9.1154602  44.0890686 -19.4480474  -7.8044602  43.9280686
 -12.7900474 -19.7664602  43.9290686 -13.3400474 -19.6954602  43.1480686
 -11.9360474 -19.4354602  43.6510686 -15.1080474  -4.9854602  47.5810686
 -15.2950474  -5.9154602  47.7060686 -15.0770474  -4.6244602  48.4670686
  -9.8760474  -7.1274602  43.7580686  -9.4800474  -6.8524602  42.9320686
 -10.3080474  -7.9564602  43.5530686 -15.6990474 -13.5234602  45.9030686
 -16.2680474 -12.7714602  46.0680686 -14.9410474 -13.3804602  46.4690686
  -1.8450474 -11.8894602  42.5310686  -1.3770474 -12.5124602  43.0860686
  -1.3650474 -11.8984602  41.7020686 -18.0150474  -2.6764602  47.0080686
 -17.6180474  -1.8314602  47.2210686 -17.5010474  -3.0034602  46.2700686
 -22.0320474   7.6035398  41.7340686 -21.7320474   8.1155398  40.9830686
 -21.8720474   6.6935398  41.4840686  -6.7580474  -4.6944602  47.4300686
  -7.4630474  -4.9884602  46.8520686  -7.2000474  -4.4524602  48.2440686
 -13.1940474  -4.2654602  41.1610686 -12.4290474  -4.6404602  40.7250686
 -12.8320474  -3.7684602  41.8950686  -8.5230474  -0.5944602  41.5680686
  -9.3930474  -0.3094602  41.2890686  -8.0610474  -0.7884602  40.7530686
   4.0199526  -9.6214602  42.3780686   4.0109526  -9.0464602  43.1440686
   4.7239526 -10.2454602  42.5530686  -7.0760474 -18.2184602  42.0100686
  -6.5170474 -18.9944602  41.9720686  -7.4210474 -18.1274602  41.1220686
  -6.0110474   8.4145398  46.1950686  -6.1600474   7.6795398  46.7910686
  -6.2940474   8.0905398  45.3400686 -13.0800474   5.6995398  45.9180686
 -13.9770474   5.9175398  45.6640686 -12.5420474   6.0135398  45.1910686
 -11.8230474   4.1775398  47.8420686 -12.0160474   4.6595398  48.6450686
 -12.1500474   4.7405398  47.1400686  -8.9430474  -5.9974602  46.3080686
  -8.7920474  -6.9354602  46.1940686  -9.5270474  -5.7594602  45.5880686
 -13.1880474   6.5405398  49.1330686 -13.4880474   6.5325398  48.2250686
 -13.7630474   7.1685398  49.5700686  -9.0500474 -14.7904602  42.9870686
  -9.8420474 -14.3274602  42.7110686  -9.3590474 -15.4354602  43.6230686
 -12.4040474  -1.6624602  46.6270686 -13.0540474  -2.0154602  46.0200686
 -12.9150474  -1.1514602  47.2550686  -9.8190474 -16.4034602  45.1810686
  -9.2270474 -16.4124602  45.9330686 -10.5120474 -17.0214602  45.4140686
 -22.8720474  -0.0514602  45.2160686 -21.9790474  -0.3744602  45.1000686
 -23.4200474  -0.6924602  44.7620686  -7.1490474   4.3525398  45.2630686
  -7.2690474   3.5705398  44.7230686  -7.9900474   4.4695398  45.7060686
 -17.1120474  -0.1324602  47.2820686 -16.4560474   0.2505398  47.8640686
 -17.9280474  -0.0944602  47.7810686  -5.4250474   6.1425398  48.2570686
  -6.2710474   5.7595398  48.4870686  -5.0380474   5.5195398  47.6420686
 -20.6000474  -2.7424602  46.0410686 -21.2470474  -2.9034602  46.7290686
 -19.7550474  -2.8774602  46.4700686  -8.6040474   7.2525398  47.8890686
  -8.1540474   6.6175398  48.4450686  -8.9430474   6.7345398  47.1590686
 -16.4140474  -2.6254602  42.8970686 -17.0060474  -2.0104602  42.4640686
 -16.9130474  -3.4404602  42.9520686 -15.6450474   1.5595398  43.9090686
 -15.3370474   2.3225398  43.4210686 -15.2640474   1.6625398  44.7810686
 -13.7430474 -16.0914602  46.2650686 -14.0590474 -15.8584602  45.3920686
 -13.4910474 -17.0114602  46.1920686 -11.6390474   7.8945398  41.2710686
 -11.7660474   7.5715398  40.3790686 -12.1840474   8.6805398  41.3210686
 -16.2050474   3.3375398  47.5410686 -15.5960474   2.8545398  46.9830686
 -16.8580474   3.6895398  46.9360686 -22.1290474  -3.7514602  43.5870686
 -21.5350474  -3.6964602  44.3360686 -21.6040474  -3.4604602  42.8420686
 -12.0040474   0.7425398  42.4620686 -12.0390474  -0.1414602  42.0960686
 -12.4760474   1.2835398  41.8290686 -22.2950474  -6.7864602  42.9500686
 -22.9240474  -6.0754602  43.0690686 -21.4440474  -6.3864602  43.1270686
  -2.8240474 -18.4974602  41.9350686  -2.4770474 -19.1814602  41.3620686
  -3.6850474 -18.8214602  42.2000686 -12.0440474  -3.0574602  43.2810686
 -12.2380474  -2.1254602  43.3860686 -11.3480474  -3.2304602  43.9160686
  -9.2660474 -21.0864602  42.3640686 -10.0470474 -21.3094602  41.8580686
  -9.2610474 -20.1294602  42.3900686 -19.7360474 -20.9464602  45.0910686
 -18.7810474 -20.8794602  45.0850686 -20.0320474 -20.1214602  45.4750686
 -13.4890474  -0.0744602  48.4910686 -14.0930474  -0.0474602  49.2330686
 -12.6990474   0.3635398  48.8090686   2.5539526   3.6415398  49.1000686
   1.6669526   3.8895398  48.8410686   2.9909526   3.4205398  48.2770686
  -9.6360474   4.4915398  46.0810686  -9.8320474   4.3255398  47.0030686
 -10.3970474   4.1545398  45.6090686  -6.2440474  -9.2464602  41.7140686
  -6.7660474  -8.4914602  41.4410686  -6.6780474  -9.5644602  42.5060686
  -8.4090474  -8.6774602  46.3890686  -8.5370474  -8.8554602  47.3210686
  -9.2920474  -8.6884602  46.0190686  -3.8840474  -6.8314602  46.1230686
  -3.7310474  -5.9884602  46.5490686  -4.0880474  -7.4294602  46.8420686
 -10.7970474  -3.1804602  48.2540686 -11.1650474  -2.9524602  49.1080686
 -11.3450474  -2.7114602  47.6240686   2.3099526  -6.6634602  41.8700686
   2.4079526  -7.4434602  41.3230686   1.5269526  -6.2284602  41.5290686
  -4.0420474   6.0805398  43.8660686  -3.1830474   5.7985398  44.1790686
  -4.6570474   5.7475398  44.5190686 -14.5520474 -17.3514602  42.3770686
 -14.4610474 -16.7084602  43.0800686 -15.3730474 -17.8054602  42.5710686
 -11.7080474   7.2335398  43.9860686 -11.6980474   8.0645398  44.4620686
 -11.3050474   7.4365398  43.1410686 -21.2290474   6.9205398  48.0990686
 -20.5600474   6.4115398  47.6430686 -22.0140474   6.3745398  48.0610686
 -21.4970474   5.2255398  40.9130686 -20.7210474   5.5385398  40.4480686
 -21.6750474   4.3665398  40.5310686  -0.5440474  -6.8994602  49.2050686
  -1.1700474  -6.8634602  49.9280686   0.2279526  -6.4374602  49.5330686
  -9.9540474  -0.1634602  46.8810686  -9.4240474   0.2765398  46.2160686
 -10.5070474  -0.7684602  46.3860686 -19.4690474 -15.3484602  42.4220686
 -18.9070474 -14.6814602  42.0270686 -18.9340474 -15.7304602  43.1180686
  -5.8980474   2.0685398  40.6160686  -5.4430474   2.8385398  40.9570686
  -6.7690474   2.3885398  40.3800686  -4.6510474  -8.9314602  47.9530686
  -5.2030474  -9.5594602  47.4870686  -5.2510474  -8.4794602  48.5460686
 -22.7730474 -17.9704602  46.3540686 -22.9180474 -18.8844602  46.1120686
 -22.8370474 -17.9624602  47.3090686 -18.1620474   4.9005398  42.5980686
 -18.0790474   4.1795398  43.2220686 -18.9820474   5.3315398  42.8360686
 -17.3920474  -0.6654602  41.1510686 -18.2970474  -0.6264602  40.8410686
 -17.0410474   0.2075398  40.9770686 -14.1770474   3.7565398  43.3010686
 -13.4570474   3.8265398  42.6750686 -14.6170474   4.6055398  43.2560686
 -18.0410474   0.4765398  45.0100686 -17.4260474   0.8075398  44.3550686
 -17.5220474   0.4055398  45.8120686 -21.7260474   2.3385398  42.7990686
 -21.2060474   1.8425398  42.1670686 -21.2880474   2.1925398  43.6370686
   3.5909526   1.8805398  44.4070686   4.3579526   1.7665398  43.8460686
   3.2429526   2.7385398  44.1660686  -4.4230474 -13.5014602  42.1240686
  -3.7100474 -13.1474602  42.6550686  -4.8590474 -12.7294602  41.7620686
  -8.4570474  -0.6194602  44.2950686  -8.5420474  -0.7624602  43.3520686
  -7.8870474  -1.3274602  44.5940686  -7.1120474   7.1935398  43.7700686
  -7.2480474   6.2675398  43.5700686  -7.7800474   7.6505398  43.2590686
 -13.8240474 -20.3534602  41.6920686 -14.5080474 -21.0234602  41.6680686
 -14.2370474 -19.5754602  41.3190686  -8.2390474 -13.7334602  45.8720686
  -7.5470474 -13.8544602  45.2220686  -8.5100474 -14.6224602  46.1010686
 -10.6670474 -15.1834602  48.3940686  -9.8460474 -15.6104602  48.1510686
 -11.3330474 -15.6274602  47.8690686   2.0509526  -6.4124602  46.9320686
   1.1619526  -6.1854602  46.6580686   2.5819526  -5.6594602  46.6740686
  -3.5220474  -9.5054602  42.2250686  -4.4650474  -9.4104602  42.0900686
  -3.3490474 -10.4324602  42.0580686   4.8509526 -18.7444602  44.4660686
   5.3059526 -19.5114602  44.1180686   4.1309526 -18.5944602  43.8540686
  -7.0400474 -14.5124602  41.1770686  -7.7070474 -14.6774602  41.8440686
  -6.4530474 -13.8724602  41.5780686   2.5409526 -14.5594602  46.0160686
   1.9759526 -15.3224602  45.8950686   2.8539526 -14.3504602  45.1350686
  -6.2020474 -14.5234602  44.4030686  -5.7130474 -14.0144602  43.7560686
  -6.1250474 -15.4294602  44.1030686   6.6229526 -20.8294602  43.8930686
   7.2859526 -20.7664602  43.2060686   6.2329526 -21.6954602  43.7710686
 -22.3510474 -18.0924602  42.6230686 -22.0060474 -17.5874602  41.8870686
 -23.2900474 -18.1594602  42.4490686   2.5429526   1.4715398  46.8640686
   3.2539526   1.0625398  47.3580686   2.9159526   1.6355398  45.9980686
  -3.0810474  -9.3674602  45.3570686  -2.6220474  -9.2074602  46.1810686
  -3.3550474  -8.4994602  45.0620686 -21.2140474  -6.9664602  46.1710686
 -21.8360474  -7.0164602  45.4440686 -21.1480474  -7.8654602  46.4920686
  -1.2840474  -2.0424602  41.7200686  -0.5060474  -2.4464602  42.1030686
  -1.5240474  -1.3504602  42.3360686   6.3079526   2.2365398  46.3550686
   6.4559526   2.7895398  45.5880686   6.5209526   1.3515398  46.0580686
   2.8269526  -2.3834602  48.6970686   1.9399526  -2.4014602  49.0560686
   3.2769526  -3.1054602  49.1340686  -6.2560474 -11.9604602  47.6170686
  -6.6240474 -12.4274602  46.8660686  -5.3520474 -12.2684602  47.6720686
  -4.5670474   4.2175398  46.5600686  -4.0440474   3.4705398  46.2680686
  -5.3130474   4.2365398  45.9610686 -18.1170474   4.2835398  45.7650686
 -18.5570474   5.1075398  45.9770686 -18.8300474   3.6655398  45.6050686
 -22.8790474 -15.1944602  47.8060686 -23.4570474 -15.6354602  47.1820686
 -22.2010474 -14.7924602  47.2620686 -10.8690474 -17.7404602  40.8260686
 -11.4610474 -17.0174602  40.6190686 -10.1940474 -17.6994602  40.1480686
   0.0619526   8.2415398  47.1970686  -0.5920474   8.5785398  47.8090686
   0.7339526   7.8495398  47.7560686   7.1219526 -12.1734602  47.8640686
   6.1859526 -12.2754602  48.0360686   7.2619526 -12.6184602  47.0290686
 -20.2730474 -12.6024602  49.1510686 -19.8500474 -12.4004602  49.9860686
 -21.1390474 -12.2014602  49.2180686 -16.8440474 -18.0244602  43.8520686
 -17.1970474 -17.1604602  44.0660686 -17.5340474 -18.4434602  43.3370686
  -2.7470474 -18.2804602  47.6910686  -2.1210474 -18.8464602  48.1440686
  -3.4810474 -18.1994602  48.2990686 -17.0230474 -11.2484602  45.8810686
 -17.2740474 -10.6924602  46.6190686 -17.0370474 -10.6634602  45.1240686
  -6.9580474  -5.5844602  41.1920686  -7.8400474  -5.9224602  41.3450686
  -6.5190474  -6.2764602  40.6970686  -0.7450474 -13.7614602  49.1520686
   0.1689526 -14.0454602  49.1200686  -0.7820474 -13.0054602  48.5660686
   1.4769526 -10.6314602  47.7550686   1.7849526 -10.1844602  48.5430686
   2.1889526 -10.5234602  47.1240686   1.5209526 -13.2964602  40.6830686
   2.0899526 -12.6964602  40.2010686   2.0399526 -13.5604602  41.4430686
  -2.4640474 -15.8044602  46.4680686  -2.2200474 -16.5904602  46.9560686
  -1.6290474 -15.4294602  46.1850686   0.1309526   4.1695398  48.2650686
  -0.6930474   4.5855398  48.0120686   0.1489526   3.3505398  47.7700686
 -21.7060474  -3.1974602  48.6760686 -21.1230474  -3.0694602  49.4250686
 -22.4960474  -3.5874602  49.0500686   4.8559526  -7.9304602  44.3640686
   4.8289526  -7.6874602  45.2890686   4.9909526  -7.1024602  43.9020686
   1.5949526 -17.7434602  48.8540686   1.7559526 -18.4034602  48.1800686
   2.4589526 -17.5664602  49.2280686   4.9819526  -5.5694602  42.3310686
   4.1529526  -6.0344602  42.2120686   5.3599526  -5.5254602  41.4530686
 -18.5040474 -10.6594602  41.5650686 -19.2100474 -10.0864602  41.8640686
 -17.7860474 -10.4954602  42.1770686   4.3279526 -16.5594602  48.5780686
   4.4809526 -15.6384602  48.7910686   4.6509526 -16.6544602  47.6820686
  -6.1240474  -3.1084602  42.1980686  -6.1880474  -3.9994602  41.8540686
  -5.4970474  -2.6734602  41.6210686 -14.3960474  -2.6044602  45.2110686
 -14.4650474  -3.5344602  45.4270686 -15.0360474  -2.4724602  44.5120686
 -21.9950474  -9.3314602  44.0300686 -22.1430474  -8.6694602  43.3550686
 -22.6650474  -9.9954602  43.8660686   0.1109526 -13.0954602  44.0220686
   0.3049526 -12.1594602  43.9670686   0.5279526 -13.3794602  44.8360686
  -4.5130474 -19.7624602  45.0240686  -4.7380474 -20.4974602  45.5940686
  -3.5570474 -19.7224602  45.0510686 -21.9310474  -9.7454602  46.9830686
 -22.1040474  -9.9604602  46.0660686 -22.0720474 -10.5674602  47.4530686
   0.1779526 -15.4844602  42.8030686   0.2079526 -14.5664602  43.0720686
  -0.3330474 -15.4814602  41.9940686  -3.4800474   7.4885398  41.3860686
  -2.5230474   7.4805398  41.3800686  -3.7200474   6.9685398  42.1530686
   7.0899526 -18.2174602  49.2520686   6.3779526 -18.8424602  49.3890686
   6.7139526 -17.3694602  49.4860686 -14.9870474 -20.6004602  47.5780686
 -14.5240474 -20.1254602  48.2680686 -15.2980474 -19.9174602  46.9840686
   3.1529526 -15.3274602  43.3900686   3.8659526 -15.0534602  42.8130686
   2.5659526 -15.8284602  42.8240686   2.5019526  -0.7144602  42.0490686
   2.5899526  -0.5294602  41.1140686   3.3139526  -1.1644602  42.2820686
   6.4949526 -11.7524602  41.7330686   6.8729526 -11.9124602  40.8690686
   5.9779526 -12.5374602  41.9180686  -1.1460474  -8.1684602  42.9010686
  -1.1360474  -7.8224602  42.0090686  -1.9540474  -8.6794602  42.9510686
   5.1209526   4.2405398  40.7180686   4.7419526   4.8545398  40.0880686
   5.8809526   4.7015398  41.0730686   5.8499526   6.6545398  43.5650686
   5.9659526   5.7555398  43.8730686   6.5679526   6.7925398  42.9480686
  -0.4770474   2.9415398  41.3360686  -1.2530474   2.8695398  41.8920686
  -0.4040474   2.0855398  40.9140686  -3.3530474  -2.2704602  45.3090686
  -3.0820474  -3.0284602  44.7920686  -3.3380474  -1.5404602  44.6900686
   4.0299526 -10.9584602  46.0650686   4.3869526 -10.0934602  46.2630686
   4.6329526 -11.3244602  45.4170686 -21.1960474 -16.7814602  44.7440686
 -21.5170474 -17.1984602  43.9440686 -21.8240474 -17.0404602  45.4180686
   3.8019526   7.3645398  41.7410686   4.6219526   7.0135398  42.0880686
   3.4219526   7.8535398  42.4710686   1.2659526  -3.0204602  42.2830686
   1.6239526  -2.1554602  42.0820686   1.9179526  -3.4224602  42.8580686
   4.9789526 -18.5904602  41.3060686   4.2289526 -19.1634602  41.4670686
   4.6609526 -17.7134602  41.5170686   1.0909526 -16.8224602  45.5880686
   0.9749526 -17.0064602  44.6560686   1.3379526 -17.6644602  45.9700686
 -17.6320474  -9.9734602  48.0650686 -18.0650474 -10.6064602  48.6390686
 -17.3350474  -9.2804602  48.6540686   4.5639526 -13.2334602  47.8940686
   4.1689526 -12.4734602  47.4660686   4.5429526 -13.9204602  47.2280686
 -18.2710474 -13.3234602  40.8780686 -18.3600474 -12.3874602  41.0570686
 -17.3300474 -13.4894602  40.9330686 -19.1240474 -18.3904602  46.0580686
 -18.1700474 -18.3134602  46.0910686 -19.4070474 -17.6454602  45.5280686
  -4.3940474   4.1715398  41.2340686  -4.2970474   5.0735398  41.5400686
  -3.7130474   4.0705398  40.5680686  -0.3630474  -5.9524602  44.8050686
  -1.0210474  -5.4414602  44.3330686  -0.4200474  -6.8284602  44.4240686
  -0.9390474   8.2015398  44.8070686  -1.4180474   9.0235398  44.9030686
  -0.6170474   8.0065398  45.6870686  -6.6730474 -18.9364602  47.5530686
  -6.4120474 -19.8124602  47.2700686  -5.8530474 -18.5094602  47.7990686
  -2.5810474   2.5785398  43.3410686  -3.3050474   3.0675398  42.9520686
  -2.6600474   2.7405398  44.2810686   4.2389526  -0.1144602  48.6430686
   4.1069526   0.4695398  49.3900686   3.4559526  -0.6644602  48.6260686
  -1.7960474 -19.4184602  45.2560686  -1.7990474 -18.8694602  46.0410686
  -1.3490474 -18.8894602  44.5950686 -20.8300474   6.8045398  44.0250686
 -21.2620474   7.2455398  43.2940686 -20.4430474   7.5145398  44.5380686
  -5.4510474  -1.9144602  47.4500686  -6.3390474  -2.2594602  47.5440686
  -5.1890474  -2.1654602  46.5640686  -2.9780474   2.0175398  45.9690686
  -3.4510474   1.1855398  45.9860686  -2.0640474   1.7765398  46.1200686
  -1.3840474   5.4945398  44.4510686  -1.0770474   5.1735398  43.6030686
  -1.1090474   6.4115398  44.4740686  -0.3440474   1.6535398  46.7660686
  -0.3960474   0.8695398  47.3130686   0.5739526   1.7005398  46.4990686
   1.2019526   0.2965398  44.2520686   1.8469526   0.9195398  44.5860686
   1.5269526   0.0555398  43.3850686   2.4129526  -5.0094602  44.2470686
   2.5199526  -5.6654602  43.5580686   1.5789526  -5.2314602  44.6620686
  -3.1970474   0.0105398  48.1080686  -3.7920474  -0.6574602  47.7670686
  -2.3990474  -0.4694602  48.3270686   4.5609526   4.3065398  47.0240686
   4.8479526   3.4035398  47.1540686   4.4859526   4.4005398  46.0740686
   2.6059526 -19.3884602  42.7910686   1.7869526 -18.8954602  42.7460686
   2.3689526 -20.2104602  43.2200686   4.9279526  -5.0514602  45.4780686
   4.2549526  -5.0844602  44.7980686   5.3169526  -4.1804602  45.3890686
   1.7179526   8.1835398  43.7820686   0.7709526   8.0705398  43.8580686
   2.0719526   7.7745398  44.5720686   1.2449526   6.9395398  49.1880686
   2.0769526   6.4665398  49.2030686   0.6139526   6.3265398  49.5650686
   4.7199526   6.8135398  48.1030686   4.6569526   5.8615398  48.0220686
   4.6449526   6.9785398  49.0430686   5.7329526   1.8875398  42.6490686
   6.6369526   2.1925398  42.7170686   5.3199526   2.4945398  42.0350686
  -7.4490474   1.9325398  43.5530686  -6.9660474   1.7505398  42.7470686
  -7.5440474   1.0775398  43.9730686   2.2569526   3.6295398  42.3280686
   1.3459526   3.3385398  42.3440686   2.4779526   3.6755398  41.3980686
  -1.7560474   5.6365398  47.0650686  -1.4910474   5.4095398  46.1740686
  -1.3740474   6.5005398  47.2170686   5.7819526  -2.3284602  44.3790686
   6.6499526  -2.7064602  44.2340686   5.2519526  -2.6614602  43.6550686
   4.4099526  -2.6394602  42.0590686   4.9029526  -2.3544602  41.2890686
   4.4369526  -3.5954602  42.0210686 -22.7390474   4.3425398  44.1590686
 -22.3070474   3.8005398  43.4980686 -22.0660474   4.9635398  44.4370686
  -1.0030474  -1.2644602  48.8030686  -1.1180474  -2.2084602  48.9060686
  -0.4980474  -1.1704602  47.9960686   4.4469526 -20.3494602  46.7840686
   4.7209526 -19.8664602  46.0040686   5.1039526 -21.0384602  46.8830686
   6.5949526 -11.9204602  44.4560686   6.3269526 -12.0884602  43.5530686
   7.4289526 -12.3804602  44.5490686 -22.7810474 -21.2504602  46.6610686
 -22.7760474 -21.3224602  45.7060686 -22.2360474 -21.9784602  46.9590686
  -5.1070474 -20.0314602  42.5320686  -5.0920474 -20.2214602  43.4700686
  -4.9140474 -20.8714602  42.1140686  -1.6250474  -0.0884602  43.7200686
  -0.7190474   0.0725398  43.9830686  -1.9810474   0.7815398  43.5430686
 -22.3590474   1.5035398  48.9030686 -22.7240474   1.9085398  48.1170686
 -23.0530474   1.5815398  49.5580686   3.1689526   7.1265398  45.8440686
   3.6079526   7.4165398  46.6440686   3.6209526   6.3175398  45.6030686
  -0.9110474   6.0175398  41.5350686   0.0139526   6.0825398  41.2980686
  -1.1820474   5.1595398  41.2080686  -5.2970474  -0.7844602  43.7410686
  -5.4950474  -1.6354602  43.3490686  -5.1370474  -0.2084602  42.9940686
 -19.1140474 -18.8894602  42.0530686 -19.7510474 -18.4314602  41.5040686
 -19.6410474 -19.4754602  42.5950686   3.2479526   4.8745398  44.4260686
   2.7569526   5.6835398  44.5690686   2.8999526   4.5255398  43.6060686
 -20.2060474  -0.3684602  41.0520686 -21.0470474   0.0895398  41.0610686
 -20.0200474  -0.5084602  40.1230686   0.6829526  -1.0834602  46.6200686
   1.5449526  -1.4824602  46.7390686   0.7139526  -0.6994602  45.7440686
  -0.5940474 -20.9264602  40.5370686  -0.0610474 -21.2034602  41.2820686
   0.0419526 -20.7124602  39.8540686 -22.0410474 -15.3124602  41.4220686
 -21.7120474 -14.8584602  40.6460686 -21.2970474 -15.3314602  42.0230686
 -18.7890474  22.1455398  -5.7219314 -18.8890474  22.8945398  -5.1349314
 -18.2440474  21.5285398  -5.2339314  -3.5080474  25.4745398 -16.0209314
  -3.6030474  24.5965398 -15.6509314  -4.2730474  25.5795398 -16.5859314
 -15.9460474  35.7445398 -15.3499314 -16.6510474  35.1875398 -15.0199314
 -15.9210474  36.4835398 -14.7419314 -16.1990474  27.1805398   1.9870686
 -16.5260474  27.8355398   2.6050686 -15.2570474  27.3435398   1.9420686
 -11.0250474  20.4385398  -7.4019314 -11.6200474  19.7155398  -7.2029314
 -10.1530474  20.0465398  -7.3739314 -17.0310474  15.4395398 -10.7819314
 -17.4960474  14.6425398 -11.0349314 -17.0070474  15.9665398 -11.5809314
  -7.8050474  26.2985398  -3.8779314  -8.6160474  26.1165398  -4.3529314
  -7.1200474  26.2425398  -4.5449314 -22.2740474  22.5435398 -10.9469314
 -23.0970474  22.8635398 -11.3189314 -22.0010474  21.8425398 -11.5379314
  -4.0540474  27.0835398 -10.1989314  -4.4410474  26.6425398  -9.4419314
  -4.7610474  27.6265398 -10.5469314 -13.8460474  17.1525398  -1.6569314
 -14.4520474  16.7195398  -1.0549314 -13.5160474  16.4465398  -2.2129314
 -11.6840474  19.8185398 -13.7789314 -12.2680474  20.2685398 -13.1689314
 -11.2310474  19.1675398 -13.2429314  -5.4430474  23.6975398  -1.5749314
  -4.9620474  23.6145398  -0.7509314  -4.7780474  23.5785398  -2.2529314
  -0.8300474  17.9745398 -13.1469314  -0.9190474  18.2085398 -14.0709314
  -0.1710474  18.5815398 -12.8089314 -17.2950474  22.1565398 -10.5329314
 -17.1450474  22.1875398  -9.5879314 -18.1560474  22.5565398 -10.6529314
 -20.3770474  15.6335398   9.3640686 -19.6360474  16.0455398   9.8100686
 -20.0470474  15.4305398   8.4890686  -9.9790474  34.0225398  -5.2849314
  -9.0460474  33.8305398  -5.3739314 -10.3860474  33.5915398  -6.0359314
   5.1269526  14.0335398 -13.9339314   4.1869526  14.1535398 -14.0699314
   5.3059526  13.1495398 -14.2529314  -4.5470474  29.8295398 -18.8019314
  -5.2010474  30.5195398 -18.9159314  -4.6310474  29.2875398 -19.5859314
 -12.2250474  24.4545398 -12.8179314 -11.7760474  25.2955398 -12.7339314
 -13.0330474  24.5635398 -12.3159314 -20.5210474  29.2405398 -15.6369314
 -19.7280474  29.7765398 -15.6359314 -20.2370474  28.3905398 -15.3009314
  -4.9320474  22.9265398  -8.8179314  -5.6580474  22.8345398  -9.4349314
  -5.2060474  22.4265398  -8.0489314 -13.2550474  32.4735398  10.7030686
 -13.8620474  33.0645398  10.2580686 -12.3870474  32.8175398  10.4920686
  -9.3800474  23.1485398 -18.9479314 -10.0090474  22.4475398 -18.7769314
  -9.8320474  23.7335398 -19.5559314  -5.9770474  30.4985398  -6.1159314
  -5.6320474  31.3745398  -6.2849314  -5.2470474  29.9105398  -6.3099314
 -18.4780474  37.2565398   6.7510686 -18.0120474  36.5795398   6.2600686
 -19.1260474  37.5975398   6.1340686 -11.1500474  31.5885398 -10.9399314
 -11.2200474  32.3525398 -11.5109314 -10.8340474  30.8885398 -11.5119314
  -8.3790474  34.5195398 -17.5919314  -7.7550474  34.5135398 -18.3179314
  -7.9380474  34.0345398 -16.8939314 -21.3210474  16.3385398 -14.3449314
 -20.9970474  15.5505398 -14.7799314 -20.5350474  16.7645398 -14.0019314
 -18.5320474  10.1655398  -2.8449314 -19.4630474  10.3025398  -3.0189314
 -18.1420474  10.0415398  -3.7099314  -5.9320474  22.8515398   8.9020686
  -5.0900474  22.4535398   9.1230686  -5.7690474  23.3165398   8.0810686
 -11.8910474  10.6515398  -1.3369314 -12.1530474  11.5725398  -1.3439314
 -11.2180474  10.5985398  -0.6589314  -7.7550474   9.1505398 -10.6109314
  -8.1450474   9.8985398 -11.0629314  -7.8200474   8.4305398 -11.2379314
  -7.4910474  22.5055398  -6.3879314  -8.1000474  22.4515398  -5.6509314
  -8.0420474  22.7265398  -7.1389314 -16.0350474  35.3965398  -9.7249314
 -15.8180474  36.2795398  -9.4269314 -15.8930474  35.4205398 -10.6709314
 -10.6330474  17.5465398   7.4770686 -11.0340474  18.2975398   7.0410686
  -9.9240474  17.9225398   7.9990686   5.6249526  24.0415398 -11.8399314
   5.5389526  24.6195398 -12.5979314   5.2779526  24.5515398 -11.1079314
 -14.5560474  14.8545398 -15.9809314 -13.8920474  15.3765398 -16.4309314
 -14.9220474  15.4475398 -15.3239314   1.4749526  17.8815398  -2.1179314
   1.8109526  16.9885398  -2.1879314   1.3809526  18.0295398  -1.1769314
 -15.1160474  22.2405398 -12.3909314 -15.7510474  21.9795398 -11.7239314
 -14.5450474  21.4785398 -12.4899314 -13.8240474  11.2775398  -7.1819314
 -13.6440474  11.7335398  -8.0039314 -13.1370474  11.5765398  -6.5849314
  -7.0590474  22.4635398 -10.4719314  -7.7450474  23.0365398 -10.8139314
  -7.5080474  21.6415398 -10.2749314 -15.2610474  25.7715398  -6.9809314
 -15.7770474  26.3645398  -6.4339314 -15.2960474  24.9315398  -6.5229314
  -0.4550474  12.0755398 -16.8189314  -1.2280474  12.0455398 -17.3829314
  -0.1120474  12.9625398 -16.9299314  -1.6810474  28.9715398  -4.5359314
  -2.0340474  29.5085398  -3.8259314  -0.9620474  29.4915398  -4.8959314
 -15.7020474  16.6735398  10.3690686 -15.5500474  17.2125398  11.1450686
 -14.8450474  16.6115398   9.9480686 -12.5000474  34.3545398   7.3120686
 -12.5080474  34.7535398   6.4420686 -13.2940474  34.6835398   7.7340686
 -11.7180474  34.7675398 -17.9249314 -11.6590474  35.7175398 -17.8229314
 -11.2710474  34.4155398 -17.1559314 -18.2230474  12.0815398  -7.1359314
 -19.0760474  12.4205398  -7.4099314 -17.6790474  12.8615398  -7.0289314
  -9.7630474  20.7895398   7.5750686  -9.3360474  20.5175398   6.7620686
  -9.0480474  20.8745398   8.2050686 -11.5440474  29.2875398  -6.5029314
 -11.5650474  30.0565398  -7.0739314 -10.6230474  29.0285398  -6.4839314
  -7.3390474  12.9725398   3.7250686  -6.7870474  13.6135398   3.2770686
  -7.6430474  12.3895398   3.0300686  -8.3770474  27.9965398 -11.6759314
  -8.8890474  27.4315398 -11.0979314  -9.0030474  28.6505398 -11.9879314
 -17.9930474  22.5505398 -13.4289314 -17.6670474  21.7515398 -13.0139314
 -18.5140474  22.9785398 -12.7499314 -10.9680474  13.4015398  -1.0519314
 -10.0990474  13.7875398  -1.1589314 -11.1440474  13.4625398  -0.1129314
 -19.9100474  32.1915398 -14.4899314 -20.3500474  31.6015398 -13.8779314
 -19.1190474  31.7205398 -14.7519314 -13.5190474  14.4685398  -5.9229314
 -14.4420474  14.2915398  -5.7419314 -13.3650474  14.0805398  -6.7839314
 -16.4510474  27.5175398  -5.2719314 -17.1130474  27.4265398  -4.5869314
 -15.8200474  28.1415398  -4.9139314 -10.1830474  13.2125398  -6.4479314
  -9.3540474  12.7465398  -6.5599314 -10.5400474  12.8715398  -5.6269314
 -11.9910474  23.9855398  -7.5819314 -12.8390474  23.5785398  -7.7579314
 -12.1810474  24.9225398  -7.5269314 -11.6320474  17.1225398 -10.1329314
 -11.5690474  16.4135398  -9.4919314 -12.2370474  17.7495398  -9.7389314
 -15.5330474  37.2825398 -17.8029314 -16.2290474  36.7575398 -18.1979314
 -15.6230474  37.1305398 -16.8619314  -7.2200474  27.0775398 -14.9339314
  -7.0430474  27.0735398 -15.8739314  -6.6620474  26.3835398 -14.5819314
 -16.9030474   9.3505398 -15.0199314 -16.0540474   8.9415398 -15.1889314
 -16.7490474  10.2855398 -15.1519314 -13.4980474  17.1915398 -12.9189314
 -13.0090474  16.9255398 -12.1399314 -12.8910474  17.7525398 -13.4019314
 -11.9420474  26.8665398  -3.5169314 -11.3070474  26.3535398  -4.0169314
 -12.7710474  26.4035398  -3.6339314 -13.8370474  18.5515398  -9.5039314
 -13.6010474  18.7915398  -8.6079314 -14.7700474  18.3405398  -9.4579314
 -14.2470474  31.5555398 -13.7559314 -13.7460474  31.1735398 -13.0349314
 -13.6050474  31.6805398 -14.4549314 -10.7190474  11.4975398 -12.8339314
 -10.3270474  11.9775398 -12.1039314 -10.0840474  10.8105398 -13.0389314
 -20.1460474  18.7915398  -3.5439314 -20.7120474  19.2635398  -4.1549314
 -20.7520474  18.3385398  -2.9569314 -19.1170474  14.3995398  -0.9369314
 -18.3740474  13.8645398  -1.2149314 -19.8680474  14.0245398  -1.3979314
 -15.6450474  13.9575398  -8.7129314 -16.2600474  14.5355398  -9.1649314
 -15.2690474  13.4165398  -9.4069314 -18.4200474  12.7855398 -10.8719314
 -19.0910474  12.1475398 -10.6319314 -18.1580474  12.5375398 -11.7579314
  -4.7040474  19.6675398  -8.3909314  -4.1200474  19.6285398  -9.1479314
  -5.5810474  19.5645398  -8.7579314 -10.2940474  11.2125398 -16.8369314
 -10.6620474  11.5825398 -17.6389314  -9.6350474  11.8495398 -16.5589314
   0.7689526  27.7215398   6.1400686   0.0349526  27.4165398   6.6720686
   1.1649526  28.4235398   6.6570686 -18.9140474  18.5025398  -0.2469314
 -18.2040474  17.9595398  -0.5909314 -18.7740474  19.3615398  -0.6459314
  -9.3050474  18.1635398 -16.3149314  -8.8280474  17.4165398 -15.9549314
  -8.6890474  18.8945398 -16.2519314 -16.7120474  37.2565398 -12.0909314
 -17.2870474  37.7925398 -11.5459314 -15.9710474  37.8275398 -12.2939314
  -7.2710474  15.0825398 -10.4959314  -7.2900474  15.0825398  -9.5389314
  -6.3690474  15.3165398 -10.7169314  -6.7470474  28.7985398  -9.6419314
  -7.0130474  28.5745398 -10.5329314  -7.1150474  28.1015398  -9.0989314
  -4.0730474  28.1595398  -5.7939314  -3.2570474  28.2785398  -5.3089314
  -3.8670474  28.4415398  -6.6849314 -15.5530474  23.4185398  -5.3769314
 -16.1690474  23.1315398  -4.7029314 -15.1980474  22.6055398  -5.7379314
  -0.7510474  20.4515398 -10.7889314  -0.7070474  21.4025398 -10.8809314
  -0.0920474  20.1195398 -11.3989314 -21.3340474  10.3075398  -7.1039314
 -21.2400474   9.8685398  -7.9489314 -21.1290474  11.2245398  -7.2849314
 -13.1120474  22.0335398   1.2190686 -12.9980474  21.0835398   1.2070686
 -12.6850474  22.3365398   0.4170686 -17.0320474  19.6045398   8.8700686
 -16.2250474  19.6795398   9.3780686 -17.7140474  19.4465398   9.5230686
 -10.2790474  21.6165398  -5.1489314 -10.6470474  21.8085398  -6.0119314
  -9.9280474  20.7295398  -5.2299314 -12.7670474  17.0145398 -16.5369314
 -12.1100474  17.0755398 -17.2299314 -12.3160474  17.3235398 -15.7509314
 -18.2030474  23.8905398   3.6450686 -18.3460474  24.3705398   2.8290686
 -17.9390474  24.5615398   4.2740686 -19.9950474  24.9255398  -5.1199314
 -19.3820474  25.5755398  -4.7779314 -20.6650474  24.8455398  -4.4409314
 -12.9370474  10.0915398 -10.3169314 -12.0240474  10.2545398 -10.5539314
 -12.8940474   9.7255398  -9.4339314 -10.3940474  17.8625398 -12.4389314
  -9.9860474  17.4265398 -13.1879314 -10.2920474  17.2435398 -11.7159314
  -2.2280474  23.0255398  -8.6249314  -2.4400474  23.4425398  -7.7899314
  -3.0790474  22.8265398  -9.0159314  -4.6590474  19.2835398   8.1140686
  -4.9700474  19.3435398   7.2110686  -3.7110474  19.3975398   8.0500686
 -17.8440474  20.6685398  -1.3379314 -17.0780474  20.1865398  -1.6499314
 -18.2210474  21.0565398  -2.1279314 -18.4400474  15.4615398   1.6120686
 -18.5340474  15.1875398   0.6990686 -18.4500474  16.4175398   1.5780686
  -6.1110474  17.3075398   2.4300686  -6.7840474  16.7335398   2.0640686
  -5.5260474  16.7185398   2.9060686  -5.5760474   9.7855398  -2.1109314
  -5.7640474  10.6355398  -1.7129314  -6.3180474   9.2345398  -1.8629314
 -18.5530474  33.1195398  -6.3499314 -17.7280474  33.5515398  -6.5729314
 -19.0360474  33.7705398  -5.8419314 -16.8240474  23.3285398  -8.0399314
 -17.4430474  23.8475398  -8.5529314 -16.9140474  23.6625398  -7.1469314
  -9.4690474  24.6435398 -10.9789314  -9.5310474  24.4115398 -11.9049314
 -10.1300474  25.3245398 -10.8569314 -14.4080474  12.6085398 -10.8709314
 -14.0470474  12.9245398 -11.6989314 -13.9290474  11.7985398 -10.6939314
 -13.6880474  38.4285398   0.0710686 -13.7890474  37.7895398  -0.6339314
 -13.1370474  39.1155398  -0.3049314 -17.0120474  34.6435398  -3.6989314
 -17.9330474  34.8715398  -3.8239314 -16.6540474  34.5975398  -4.5849314
 -18.7380474  16.5105398 -12.9249314 -19.3100474  16.8015398 -12.2149314
 -18.5870474  17.2965398 -13.4499314  -1.9790474  16.5925398  -1.6299314
  -2.4200474  16.9105398  -0.8419314  -1.6140474  17.3795398  -2.0349314
 -19.3630474  37.6655398  -5.0949314 -19.4570474  37.2015398  -5.9269314
 -18.8320474  38.4335398  -5.3069314 -15.2640474  24.0595398 -18.9219314
 -14.7720474  23.3765398 -18.4669314 -14.7600474  24.8595398 -18.7719314
 -13.1380474  11.3545398 -13.8419314 -12.2890474  11.2055398 -13.4239314
 -13.1100474  10.8255398 -14.6389314 -13.8840474  24.8695398  -3.8729314
 -14.1810474  24.4805398  -3.0509314 -14.5070474  24.5515398  -4.5269314
  -9.9180474  14.5495398   1.4220686  -9.6430474  15.4635398   1.3510686
  -9.4550474  14.2195398   2.1920686  -8.9180474  18.4895398   9.6130686
  -8.1910474  17.9295398   9.8850686  -8.5560474  19.0245398   8.9060686
  -7.9030474  15.5875398   8.5650686  -7.6780474  15.5125398   9.4920686
  -8.7600474  15.1675398   8.4910686  -3.1340474  25.4915398 -12.6899314
  -3.2840474  26.2665398 -13.2299314  -3.7800474  25.5595398 -11.9869314
   2.0169526  23.7905398  -9.8959314   2.4059526  23.0575398  -9.4179314
   2.4179526  23.7515398 -10.7639314 -17.1680474  20.0205398  -7.1969314
 -17.4000474  20.2395398  -6.2939314 -16.3250474  20.4505398  -7.3379314
  -7.5630474  16.3325398  -5.9129314  -7.4040474  15.6125398  -6.5229314
  -6.6900474  16.5985398  -5.6239314  -8.9680474  36.2175398  -8.2779314
  -9.2980474  36.1075398  -7.3859314  -9.6970474  36.6135398  -8.7559314
 -21.7100474  26.2825398   9.9660686 -21.0050474  26.5685398  10.5460686
 -21.2630474  25.8405398   9.2450686 -20.4340474  21.9035398  -7.9659314
 -19.9430474  21.7885398  -7.1519314 -20.5170474  22.8525398  -8.0629314
 -18.8290474  19.4425398  -9.2919314 -19.5520474  20.0535398  -9.1549314
 -18.2230474  19.6225398  -8.5719314 -20.4400474  10.7395398  -9.9969314
 -20.9890474  11.4775398 -10.2639314 -21.0280474   9.9845398 -10.0159314
 -19.8900474  24.5605398  -7.8869314 -19.9350474  24.6305398  -6.9329314
 -19.8010474  25.4645398  -8.1899314 -10.3360474  22.6615398  -2.7419314
 -10.2220474  22.2155398  -3.5819314  -9.5170474  23.1395398  -2.6109314
  -7.1990474  20.5335398   8.5420686  -6.3620474  20.0735398   8.6150686
  -6.9970474  21.4375398   8.7840686 -14.8650474  26.7545398  -2.2129314
 -15.0970474  26.0475398  -1.6109314 -14.6680474  26.3115398  -3.0379314
 -14.8900474   9.5215398  -5.4199314 -14.7230474  10.2745398  -5.9869314
 -14.3250474   9.6645398  -4.6589314 -10.5800474  31.9095398 -15.4509314
 -11.3390474  31.3935398 -15.7219314  -9.8350474  31.4765398 -15.8669314
 -19.0540474  36.7375398 -13.3729314 -19.3770474  37.5925398 -13.6579314
 -18.1700474  36.9095398 -13.0509314 -20.7870474  30.6015398  -1.6229314
 -20.0680474  30.2795398  -2.1649314 -20.6030474  31.5335398  -1.5079314
  -3.9190474  16.8175398 -13.5139314  -3.0010474  16.8485398 -13.2429314
  -4.0650474  15.9055398 -13.7629314 -17.1070474  24.5485398 -15.1709314
 -16.3150474  24.1125398 -15.4849314 -17.2920474  24.1315398 -14.3289314
  -7.2750474  20.1215398 -15.7599314  -6.4550474  19.6445398 -15.6369314
  -7.4460474  20.5295398 -14.9099314  -9.2890474  23.5285398  -8.2269314
 -10.0740474  23.8405398  -7.7769314  -9.4090474  23.8015398  -9.1359314
 -16.1750474  18.8795398  -2.5709314 -15.2390474  18.6825398  -2.6089314
 -16.5790474  18.0685398  -2.2619314 -13.8080474  28.2005398   2.6170686
 -13.0430474  27.8665398   2.1470686 -13.5630474  29.0905398   2.8720686
 -14.0220474  28.8865398 -17.8839314 -14.6270474  28.2485398 -17.5059314
 -14.1380474  29.6725398 -17.3499314  -9.4660474   9.0345398 -14.3579314
  -8.6490474   9.0135398 -13.8609314  -9.1920474   8.9805398 -15.2739314
 -14.7790474  25.7925398  -9.7989314 -14.7980474  26.7105398 -10.0719314
 -14.9130474  25.8215398  -8.8519314 -11.0490474  17.3415398 -18.6649314
 -11.4370474  18.1725398 -18.9369314 -10.1050474  17.4965398 -18.6909314
  -8.8550474  29.1765398   0.3820686  -9.7280474  28.9905398   0.7260686
  -8.7960474  28.6515398  -0.4169314 -14.1280474  23.2975398  -8.9709314
 -15.0110474  23.1425398  -8.6339314 -14.1800474  24.1565398  -9.3909314
   2.8659526  24.0475398  -3.8879314   3.6849526  23.9225398  -4.3669314
   2.9209526  23.4345398  -3.1549314  -8.1780474  13.5005398 -12.7469314
  -7.6220474  12.7245398 -12.8159314  -7.6420474  14.1395398 -12.2769314
  -8.1690474  26.8445398   9.3590686  -7.8860474  27.7195398   9.0900686
  -7.6490474  26.6535398  10.1390686  -8.1080474  23.9635398  -2.6219314
  -7.9970474  24.7715398  -3.1229314  -7.2370474  23.7765398  -2.2719314
 -15.1820474  21.7225398   7.2850686 -15.4100474  21.2055398   8.0580686
 -14.4840474  22.3055398   7.5820686   4.5429526  20.9515398  -6.8319314
   4.0579526  20.1315398  -6.7449314   5.4059526  20.6875398  -7.1509314
  -3.1060474  19.4235398 -10.6639314  -2.2030474  19.7325398 -10.7419314
  -3.6210474  20.0595398 -11.1609314  -9.2340474  20.5105398 -11.1719314
  -9.9520474  20.9175398 -10.6859314  -9.5190474  19.6075398 -11.3089314
 -18.4780474   8.4405398 -10.3309314 -17.9560474   8.7995398  -9.6139314
 -19.2020474   9.0585398 -10.4339314 -19.7120474  23.7575398 -11.4879314
 -20.3100474  23.8845398 -12.2239314 -20.1840474  23.1775398 -10.8919314
  -9.4180474  18.7185398  -4.0619314  -8.7920474  19.4325398  -3.9419314
  -8.8990474  18.0055398  -4.4369314 -16.5590474  21.0005398   1.3190686
 -17.1460474  21.1065398   0.5700686 -16.1020474  21.8385398   1.3860686
 -20.7160474  10.9035398  -4.4629314 -20.9240474  10.4855398  -5.2989314
 -20.1510474  11.6405398  -4.6979314  -2.5560474   9.6625398  -5.0889314
  -1.6650474   9.5355398  -5.4149314  -2.5820474  10.5795398  -4.8139314
  -9.9570474  26.6615398 -14.7719314 -10.0840474  26.9485398 -13.8679314
  -9.0240474  26.7975398 -14.9379314 -11.7020474  21.7015398  -9.8519314
 -11.4170474  21.6565398  -8.9399314 -12.4410474  22.3095398  -9.8429314
 -17.6210474  25.0675398 -18.2389314 -16.7120474  24.8715398 -18.0099314
 -17.8150474  24.4815398 -18.9699314 -16.9490474   9.7665398  -8.6439314
 -16.2010474  10.3615398  -8.5999314 -17.7080474  10.3205398  -8.4599314
  -8.8730474  17.7725398  -9.4509314  -9.8240474  17.6985398  -9.5329314
  -8.5330474  16.9895398  -9.8849314  -9.0690474  24.4635398   0.4320686
  -9.5270474  24.0765398  -0.3139314  -8.7570474  25.3095398   0.1080686
  -4.9840474  22.3655398  -5.3429314  -5.9370474  22.3855398  -5.2629314
  -4.6650474  22.6145398  -4.4749314  -4.9460474  13.2485398 -19.1489314
  -5.8580474  13.5165398 -19.0329314  -4.7120474  12.8295398 -18.3199314
 -16.8280474  20.2265398 -16.3569314 -17.6480474  20.7195398 -16.3939314
 -16.1900474  20.8485398 -16.0079314  -2.1250474  20.4305398  -1.8819314
  -1.5790474  19.7175398  -2.2129314  -1.9990474  21.1415398  -2.5109314
  -6.8140474  19.2175398  -9.9009314  -7.6030474  18.8285398  -9.5239314
  -6.5770474  18.6325398 -10.6199314 -11.0300474  20.4115398 -16.3429314
 -11.3140474  20.4335398 -15.4299314 -10.6260474  19.5505398 -16.4489314
 -12.3070474  26.6475398  -7.1649314 -13.2390474  26.4845398  -7.0219314
 -12.2260474  27.6015398  -7.1599314  -6.1080474  29.0375398  -3.5139314
  -5.3690474  28.4435398  -3.6449314  -6.1900474  29.5065398  -4.3449314
 -16.5280474  12.3485398 -13.2049314 -16.0860474  12.6315398 -12.4049314
 -16.1330474  12.8785398 -13.8979314  -5.0880474  19.1415398   5.2310686
  -5.8590474  18.6785398   4.9030686  -4.3510474  18.7255398   4.7850686
  -1.9170474  25.2875398 -17.9969314  -1.5600474  26.1615398 -18.1559314
  -2.5050474  25.4005398 -17.2509314   5.5719526  19.4055398  -9.8419314
   5.9859526  19.6455398  -9.0129314   5.9919526  19.9685398 -10.4919314
  -8.0110474  35.0395398 -10.6159314  -8.0740474  35.2955398  -9.6949314
  -8.0630474  34.0835398 -10.6029314 -16.4780474  17.7115398  -9.8149314
 -17.2560474  18.2665398  -9.8719314 -16.7170474  16.9135398 -10.2869314
  -4.9360474  18.6665398 -15.1429314  -4.3460474  19.4105398 -15.0179314
  -4.6840474  18.0435398 -14.4619314  -8.3460474  19.8025398  -6.9779314
  -7.5970474  20.3925398  -7.0669314  -8.0680474  18.9955398  -7.4119314
 -17.0150474  27.8195398  -8.9859314 -17.6780474  28.0645398  -8.3409314
 -17.4870474  27.2835398  -9.6229314 -12.3770474  13.3075398  -8.3979314
 -12.4630474  13.9785398  -9.0759314 -11.5300474  13.4855398  -7.9899314
 -14.5370474  31.9345398  -6.2969314 -13.7460474  32.4045398  -6.5609314
 -15.2560474  32.4685398  -6.6339314 -14.9080474  22.2715398 -15.1959314
 -14.2260474  22.8855398 -15.4669314 -14.9840474  22.3985398 -14.2499314
 -14.3180474  28.4785398  -7.8259314 -15.2180474  28.1535398  -7.8609314
 -14.4090474  29.4255398  -7.7179314 -14.4040474  38.0205398 -14.7629314
 -13.6500474  38.2865398 -15.2899314 -14.2480474  38.4165398 -13.9059314
 -18.8720474  35.7265398  -9.5299314 -17.9370474  35.5185398  -9.5279314
 -18.9100474  36.6575398  -9.7479314  -5.0530474  14.2675398 -13.1629314
  -4.1360474  14.0825398 -13.3649314  -5.5420474  13.8775398 -13.8869314
   1.9109526  15.9005398 -10.8729314   2.0209526  15.2015398 -11.5179314
   2.5889526  16.5385398 -11.0929314 -13.2600474  20.3125398 -11.6069314
 -12.5060474  20.7485398 -11.2099314 -13.6320474  19.7845398 -10.9009314
  -5.0690474  19.8035398   1.5900686  -5.3320474  18.9675398   1.9740686
  -5.8860474  20.2935398   1.4970686  -6.5030474  12.0995398  -0.4349314
  -5.8000474  12.7495398  -0.4379314  -6.7130474  11.9775398   0.4910686
 -11.2650474  16.5975398   4.1240686 -10.9900474  15.9645398   4.7880686
 -10.9790474  17.4435398   4.4680686  -4.5710474  17.1065398  -2.4669314
  -4.7150474  17.9215398  -1.9859314  -3.6550474  16.8865398  -2.2979314
 -15.0860474  18.1755398 -17.5809314 -14.2110474  17.8655398 -17.3489314
 -15.5400474  18.2645398 -16.7429314 -15.4430474  18.0245398   7.0060686
 -15.8310474  18.6215398   7.6460686 -15.0410474  18.5985398   6.3550686
  -9.4220474  16.8305398  -1.7009314 -10.3380474  16.9435398  -1.4449314
  -9.1920474  17.6505398  -2.1379314   4.2229526  21.9605398 -12.9069314
   3.3029526  22.1945398 -13.0289314   4.6209526  22.7445398 -12.5289314
 -17.5180474  18.3075398   2.0610686 -18.4220474  18.5545398   2.2550686
 -17.0280474  19.1275398   2.1160686  -7.2110474  22.1165398   2.0260686
  -7.9810474  22.6825398   1.9700686  -7.1650474  21.8645398   2.9480686
 -17.5340474  14.3215398 -14.9429314 -16.9720474  15.0635398 -15.1659314
 -17.7830474  14.4745398 -14.0309314  -1.4100474  29.3615398   2.1800686
  -1.3800474  30.3155398   2.1060686  -1.6930474  29.0635398   1.3160686
  -6.7110474  21.2545398   4.8440686  -5.9580474  20.8515398   5.2760686
  -7.4020474  20.5935398   4.9000686  -2.6020474  21.1525398   2.0370686
  -3.3440474  21.1775398   2.6400686  -2.8760474  21.6935398   1.2960686
   0.6769526  19.7465398 -16.1419314  -0.2150474  20.0925398 -16.1599314
   1.2019526  20.4145398 -16.5829314 -15.0300474  34.4985398   4.2280686
 -14.3810474  34.7005398   3.5540686 -15.8370474  34.3315398   3.7410686
  -4.4930474  23.2415398   1.2430686  -4.0700474  23.6625398   1.9920686
  -5.3850474  23.0625398   1.5410686  -7.9340474  23.6355398   4.4720686
  -7.2790474  24.1895398   4.0470686  -7.4230474  22.9685398   4.9300686
  -2.7830474  25.8845398  -2.2259314  -2.0530474  26.4875398  -2.3649314
  -2.6450474  25.5395398  -1.3439314  -5.1870474  17.4855398  -4.9519314
  -4.7020474  18.3105398  -4.9499314  -5.1470474  17.1815398  -4.0449314
  -5.8510474  12.7615398 -15.7889314  -5.5870474  11.8985398 -15.4699314
  -6.5770474  12.5835398 -16.3879314 -10.7670474  21.5205398   3.9980686
 -10.1140474  21.6275398   3.3060686 -11.0820474  22.4075398   4.1700686
 -13.6100474  13.2195398  -2.8039314 -14.4320474  13.2365398  -3.2939314
 -13.8790474  13.1805398  -1.8859314 -12.6250474  18.3575398  -6.8849314
 -12.0690474  17.5855398  -6.9929314 -12.7270474  18.4485398  -5.9369314
 -11.3900474  19.1255398   5.1500686 -11.1350474  19.9585398   4.7520686
 -12.1560474  18.8455398   4.6490686   5.9209526  15.7425398 -17.1949314
   5.9599526  15.4485398 -16.2849314   6.6299526  15.2675398 -17.6299314
 -10.0780474  14.5665398   6.3730686 -10.6880474  15.2705398   6.5910686
 -10.6200474  13.9025398   5.9470686  -0.8360474  17.8575398  10.0010686
   0.0499526  17.4975398   9.9480686  -1.4100474  17.1025398   9.8760686
  -5.0730474  14.2715398  -1.1309314  -4.1700474  14.0905398  -1.3939314
  -5.1240474  15.2265398  -1.0879314  -7.0140474  27.8775398   5.3830686
  -7.3220474  27.3085398   6.0880686  -6.0600474  27.8605398   5.4600686
 -10.6000474  26.3085398  -1.0079314 -11.3100474  26.2575398  -1.6479314
  -9.9500474  26.8805398  -1.4159314  -1.3330474  18.5635398  -5.9249314
  -2.1080474  18.9855398  -5.5539314  -1.2100474  18.9895398  -6.7729314
 -19.8670474  21.3435398   6.1260686 -19.3750474  21.1955398   5.3190686
 -20.1780474  20.4745398   6.3810686  -8.2300474  37.7095398   7.2180686
  -7.5370474  38.2425398   6.8270686  -8.5720474  38.2475398   7.9320686
 -17.2360474  32.0905398 -19.4009314 -16.8150474  32.3395398 -18.5779314
 -16.5260474  31.7355398 -19.9349314 -19.8820474  26.7385398 -18.0499314
 -19.7530474  27.6865398 -18.0209314 -19.0370474  26.3895398 -18.3309314
 -17.2460474  16.6455398  -1.2309314 -16.6470474  16.3495398  -0.5449314
 -17.7210474  15.8565398  -1.4909314 -16.9990474  14.7345398   3.6930686
 -17.0460474  13.7785398   3.6780686 -17.6520474  15.0175398   3.0540686
 -19.3550474  21.2525398 -16.2079314 -20.1880474  20.8845398 -15.9109314
 -19.4480474  22.1955398 -16.0719314 -10.8300474  10.7585398   6.1720686
 -11.0150474  10.8125398   7.1090686 -11.2350474  11.5425398   5.8010686
 -19.4370474  18.0735398   7.6640686 -19.2010474  17.1875398   7.3900686
 -18.8120474  18.2855398   8.3570686  -2.7940474  12.3075398  -4.4559314
  -2.3020474  12.9715398  -4.9389314  -3.6460474  12.2765398  -4.8909314
 -13.7600474  38.1595398   3.0210686 -12.9750474  38.7045398   3.0710686
 -13.7420474  37.7925398   2.1370686 -12.6200474  25.3925398   6.7530686
 -12.2970474  24.8545398   6.0290686 -12.3750474  26.2865398   6.5150686
 -17.2140474  15.0315398   8.4820686 -16.6370474  15.2545398   7.7520686
 -16.6800474  15.1775398   9.2630686 -13.8870474  18.5705398   3.9200686
 -14.5450474  19.1635398   4.2830686 -14.3730474  17.7745398   3.7040686
 -20.2740474  17.6585398  -6.8279314 -20.7850474  18.2795398  -6.3099314
 -20.9260474  17.0775398  -7.2179314 -12.7900474  10.2335398 -16.0709314
 -13.3400474  10.3045398 -16.8519314 -11.9360474  10.5645398 -16.3489314
  -7.3530474  34.0205398   6.8030686  -8.0880474  33.4675398   6.5390686
  -6.8200474  34.1045398   6.0120686 -15.7550474  15.6105398   6.0580686
 -16.2360474  15.4965398   5.2390686 -15.6360474  16.5565398   6.1370686
  -8.5990474  19.2905398   5.5170686  -9.4370474  19.1565398   5.0750686
  -8.3000474  18.4085398   5.7370686   1.8579526  14.5405398  -2.3369314
   0.9189526  14.5005398  -2.5189314   2.2719526  14.2115398  -3.1349314
 -17.7530474  19.9395398  -4.3649314 -18.5170474  19.5195398  -3.9709314
 -17.0030474  19.4935398  -3.9699314  -6.6050474  26.3165398  -0.8329314
  -6.4400474  27.0045398  -1.4789314  -6.2430474  25.5245398  -1.2289314
 -11.4870474   9.8845398   2.8810686 -11.1120474   9.7655398   3.7540686
 -10.7370474  10.0905398   2.3230686 -18.5360474  10.5055398   3.1090686
 -17.8650474  11.0575398   3.5120686 -19.1560474  11.1245398   2.7250686
 -15.1080474  25.0145398 -12.4189314 -15.2950474  24.0845398 -12.2939314
 -15.0770474  25.3755398 -11.5329314 -13.3640474  23.3155398   8.5080686
 -12.9410474  24.0805398   8.1170686 -13.8500474  23.6655398   9.2550686
 -21.1350474   9.0965398   9.4530686 -20.3350474   9.5425398   9.7310686
 -21.8020474   9.7835398   9.4450686 -10.1790474  20.6845398  -0.5249314
 -10.6810474  19.8945398  -0.7219314 -10.2580474  21.2215398  -1.3139314
 -19.8710474  36.4265398   9.0870686 -19.6440474  36.2325398   8.1770686
 -20.0050474  37.3735398   9.1040686 -14.0870474  27.7495398   9.3900686
 -13.8500474  27.2355398  10.1620686 -14.6820474  28.4215398   9.7220686
 -12.0980474  12.9805398   5.2230686 -12.9970474  13.0435398   5.5460686
 -12.1880474  12.9345398   4.2710686 -14.7510474  19.8785398  10.0340686
 -13.8030474  20.0085398  10.0420686 -14.9200474  19.2925398  10.7720686
 -15.4990474  16.7175398   3.0560686 -15.9060474  15.8595398   3.1740686
 -16.0120474  17.1335398   2.3630686 -16.9510474  10.9565398  10.1690686
 -17.5070474  10.8845398  10.9440686 -17.4350474  10.4985398   9.4820686
  -9.8760474  22.8725398 -16.2419314  -9.4800474  23.1475398 -17.0679314
 -10.3080474  22.0435398 -16.4469314  -8.2520474  10.1145398   4.8450686
  -7.6110474  10.0215398   5.5500686  -9.0190474  10.5005398   5.2680686
 -13.6900474  19.3025398   1.3180686 -14.6140474  19.4595398   1.1240686
 -13.6820474  19.0145398   2.2310686 -14.7210474  25.6235398   4.1070686
 -13.8410474  25.5385398   4.4730686 -14.9350474  26.5515398   4.2080686
 -15.6990474  16.4765398 -14.0969314 -16.2680474  17.2285398 -13.9319314
 -14.9410474  16.6195398 -13.5309314   7.2059526  16.6355398  -8.0609314
   7.2829526  15.7215398  -8.3359314   6.3839526  16.9345398  -8.4489314
  -1.8450474  18.1105398 -17.4689314  -1.3770474  17.4875398 -16.9139314
  -1.3650474  18.1015398 -18.2979314 -18.0150474  27.3235398 -12.9919314
 -17.6180474  28.1685398 -12.7789314 -17.5010474  26.9965398 -13.7299314
 -22.0320474  37.6035398 -18.2659314 -21.7320474  38.1155398 -19.0169314
 -21.8720474  36.6935398 -18.5159314 -16.0010474  13.0405398  -4.0119314
 -16.4830474  13.5925398  -4.6269314 -16.6280474  12.8555398  -3.3129314
  -7.6590474  16.7495398   5.8500686  -8.3730474  16.1165398   5.9210686
  -7.1880474  16.6745398   6.6800686  -6.7580474  25.3055398 -12.5699314
  -7.4630474  25.0115398 -13.1479314  -7.2000474  25.5475398 -11.7559314
 -21.2930474  18.1315398   5.7230686 -20.5840474  18.0075398   6.3540686
 -20.8570474  18.4385398   4.9290686   1.1169526  27.8505398   1.9270686
   1.3749526  26.9665398   2.1890686   0.2619526  27.9825398   2.3380686
  -8.5140474  26.6655398  -8.7429314  -8.5390474  26.6135398  -7.7879314
  -8.6230474  25.7595398  -9.0349314 -17.7950474  12.4765398   7.3900686
 -18.7230474  12.6115398   7.1990686 -17.5610474  13.2005398   7.9700686
 -18.3420474  21.2315398   3.8620686 -18.3830474  22.1775398   4.0040686
 -18.0260474  21.1385398   2.9630686  -8.2770474  31.6135398  -9.3169314
  -8.0890474  32.0785398 -10.1329314  -8.1540474  30.6895398  -9.5339314
  -7.5940474  20.5255398  -3.1489314  -7.9750474  21.2835398  -2.7049314
  -6.7370474  20.4125398  -2.7379314  -0.6170474  26.2815398   4.3250686
  -0.7270474  25.4965398   4.8620686  -0.1940474  26.9125398   4.9060686
 -13.1940474  25.7345398 -18.8389314 -12.4290474  25.3595398 -19.2749314
 -12.8320474  26.2315398 -18.1049314 -13.2670474  36.2975398   5.4890686
 -13.4530474  36.0475398   4.5840686 -12.5200474  36.8925398   5.4250686
 -15.6990474  20.2855398   4.9110686 -16.5400474  20.6065398   4.5830686
 -15.3500474  21.0115398   5.4270686 -22.7430474  17.2785398   0.8880686
 -23.0270474  16.4755398   1.3240686 -22.9290474  17.9735398   1.5190686
 -11.5450474  18.4005398  -0.7279314 -12.1590474  17.7425398  -1.0529314
 -11.6970474  18.4255398   0.2170686  -8.5230474  29.4055398 -18.4319314
  -9.3930474  29.6905398 -18.7109314  -8.0610474  29.2115398 -19.2469314
 -12.1330474  18.4375398  -4.1279314 -11.2000474  18.6305398  -4.2219314
 -12.1630474  17.6595398  -3.5719314 -19.3530474  15.6615398   6.5610686
 -18.5530474  15.1425398   6.6450686 -19.4990474  15.7255398   5.6170686
  -3.0820474  24.2195398  -6.3959314  -2.3230474  24.1715398  -5.8149314
  -3.6160474  23.4615398  -6.1569314 -21.9190474  22.6505398  10.1560686
 -21.3710474  23.4145398   9.9740686 -21.9610474  22.6075398  11.1110686
 -11.5640474  21.6645398   9.4010686 -12.2040474  22.2115398   8.9460686
 -11.0060474  21.3175398   8.7050686  -5.9470474  25.0845398   3.1470686
  -6.1030474  26.0075398   3.3480686  -5.0470474  25.0585398   2.8230686
   4.0199526  20.3785398 -17.6219314   4.0109526  20.9535398 -16.8559314
   4.7239526  19.7545398 -17.4469314  -7.0760474  11.7815398 -17.9899314
  -6.5170474  11.0055398 -18.0279314  -7.4210474  11.8725398 -18.8779314
 -22.0350474  11.8885398   4.4770686 -22.3540474  11.0115398   4.2660686
 -21.2720474  12.0095398   3.9110686  -9.0170474  28.1905398  -2.2329314
  -9.0900474  28.9955398  -2.7459314  -8.2050474  27.7845398  -2.5379314
 -12.3910474  15.6485398  -3.5559314 -12.3660474  14.7945398  -3.1239314
 -12.7690474  15.4705398  -4.4169314  -6.9990474  36.1155398   1.4470686
  -7.4490474  35.4175398   0.9710686  -7.6120474  36.3695398   2.1360686
  -7.3520474  12.6595398   6.6320686  -8.0470474  13.3175398   6.6430686
  -7.1190474  12.5715398   5.7080686  -5.2730474  38.5445398   3.1680686
  -5.4820474  37.8445398   2.5500686  -5.6020474  38.2275398   4.0090686
 -13.5320474  16.5545398   8.7740686 -14.1080474  16.6475398   8.0150686
 -12.7230474  16.9965398   8.5170686 -14.9630474  15.5675398   0.2530686
 -14.9860474  14.6115398   0.2260686 -14.1230474  15.7765398   0.6630686
  -6.0110474  38.4145398 -13.8049314  -6.1600474  37.6795398 -13.2089314
  -6.2940474  38.0905398 -14.6599314 -13.0800474  35.6995398 -14.0819314
 -13.9770474  35.9175398 -14.3359314 -12.5420474  36.0135398 -14.8089314
  -4.4810474  37.8665398   8.8460686  -4.9670474  37.0485398   8.7430686
  -4.1800474  37.8545398   9.7550686 -21.7880474  14.5245398  -9.8419314
 -22.2610474  14.7915398 -10.6299314 -20.9890474  15.0515398  -9.8509314
 -11.7580474  31.3775398   1.3000686 -11.7250474  30.4295398   1.4230686
 -12.3890474  31.5055398   0.5910686 -11.8230474  34.1775398 -12.1579314
 -12.0160474  34.6595398 -11.3549314 -12.1500474  34.7405398 -12.8599314
 -20.2350474  27.2535398  -8.5069314 -19.7260474  27.8005398  -7.9089314
 -19.8550474  27.4235398  -9.3689314  -8.9430474  24.0025398 -13.6919314
  -8.7920474  23.0645398 -13.8059314  -9.5270474  24.2405398 -14.4119314
 -20.7420474  13.1475398  -7.3929314 -21.2180474  13.4885398  -8.1499314
 -21.0660474  13.6615398  -6.6539314 -13.1880474  36.5405398 -10.8669314
 -13.4880474  36.5325398 -11.7749314 -13.7630474  37.1685398 -10.4299314
 -11.1820474  28.8585398   1.7880686 -11.2890474  27.9855398   1.4110686
 -10.5680474  28.7335398   2.5130686   5.1429526  34.3605398  -7.2779314
   5.3389526  35.2015398  -6.8649314   4.1889526  34.3485398  -7.3579314
  -9.0500474  15.2095398 -17.0129314  -9.8420474  15.6725398 -17.2889314
  -9.3590474  14.5645398 -16.3769314 -17.9100474  37.9905398  -1.2389314
 -17.7760474  38.1395398  -0.3029314 -18.2950474  38.8065398  -1.5589314
 -12.4040474  28.3375398 -13.3729314 -13.0540474  27.9845398 -13.9799314
 -12.9150474  28.8485398 -12.7449314  -9.8190474  13.5965398 -14.8189314
  -9.2270474  13.5875398 -14.0669314 -10.5120474  12.9785398 -14.5859314
 -19.5830474  33.0755398  -0.1149314 -18.7040474  32.6995398  -0.1599314
 -19.4930474  33.9435398  -0.5079314 -22.8720474  29.9485398 -14.7839314
 -21.9790474  29.6255398 -14.8999314 -23.4200474  29.3075398 -15.2379314
  -7.1490474  34.3525398 -14.7369314  -7.2690474  33.5705398 -15.2769314
  -7.9900474  34.4695398 -14.2939314  -8.6920474  28.7995398  -6.2919314
  -8.4490474  29.6865398  -6.5579314  -7.8650474  28.3895398  -6.0379314
  -5.3020474  29.9425398   1.9670686  -5.7970474  30.6695398   2.3450686
  -5.7050474  29.1585398   2.3400686 -10.0670474  33.4435398   2.4200686
 -10.4220474  32.7245398   1.8970686  -9.5830474  33.9795398   1.7920686
 -18.2320474  30.9605398  -2.8979314 -17.6330474  31.7065398  -2.8669314
 -17.6990474  30.2145398  -2.6219314 -17.1120474  29.8675398 -12.7179314
 -16.4560474  30.2505398 -12.1359314 -17.9280474  29.9055398 -12.2189314
  -5.4250474  36.1425398 -11.7429314  -6.2710474  35.7595398 -11.5129314
  -5.0380474  35.5195398 -12.3579314 -20.6000474  27.2575398 -13.9589314
 -21.2470474  27.0965398 -13.2709314 -19.7550474  27.1225398 -13.5299314
  -8.6040474  37.2525398 -12.1109314  -8.1540474  36.6175398 -11.5549314
  -8.9430474  36.7345398 -12.8409314   1.4089526  33.1865398  -5.3769314
   1.9869526  32.4535398  -5.5849314   1.6389526  33.8625398  -6.0149314
 -16.4140474  27.3745398 -17.1029314 -17.0060474  27.9895398 -17.5359314
 -16.9130474  26.5595398 -17.0479314 -17.0580474  35.8585398  10.4560686
 -17.6540474  36.0215398   9.7240686 -17.5480474  35.2795398  11.0400686
  -6.4730474  27.5375398   1.7600686  -6.4060474  26.8265398   1.1230686
  -7.2160474  28.0605398   1.4590686 -15.6450474  31.5595398 -16.0909314
 -15.3370474  32.3225398 -16.5789314 -15.2640474  31.6625398 -15.2189314
 -12.5340474  31.9485398  -2.3649314 -13.2820474  31.6775398  -1.8329314
 -12.3960474  31.2215398  -2.9729314  -7.4650474  33.5715398  -5.4689314
  -6.6640474  33.6815398  -5.9809314  -7.8290474  32.7385398  -5.7689314
 -13.7430474  13.9085398 -13.7349314 -14.0590474  14.1415398 -14.6079314
 -13.4910474  12.9885398 -13.8079314 -18.6370474  28.6175398  -6.9139314
 -19.0660474  29.4265398  -6.6369314 -17.8760474  28.5405398  -6.3379314
 -19.6630474  23.9545398 -16.2729314 -19.2740474  24.6125398 -16.8489314
 -19.1100474  23.9625398 -15.4919314 -18.7310474  26.2515398 -10.5539314
 -18.6790474  26.6325398 -11.4299314 -19.3180474  25.5025398 -10.6519314
 -11.7460474  37.8335398  -5.3839314 -10.9500474  37.4925398  -4.9759314
 -12.0810474  38.4765398  -4.7579314 -11.6390474  37.8945398 -18.7289314
 -11.7660474  37.5715398 -19.6209314 -12.1840474  38.6805398 -18.6789314
 -12.7460474  22.8065398  -1.5499314 -13.2040474  21.9695398  -1.6299314
 -11.9730474  22.7115398  -2.1059314 -16.2050474  33.3375398 -12.4589314
 -15.5960474  32.8545398 -13.0169314 -16.8580474  33.6895398 -13.0639314
 -22.1290474  26.2485398 -16.4129314 -21.5350474  26.3035398 -15.6639314
 -21.6040474  26.5395398 -17.1579314 -15.9970474  34.5265398  -6.4659314
 -16.1490474  35.4625398  -6.3379314 -15.0490474  34.4245398  -6.3819314
 -12.9410474  33.9755398  -7.9679314 -12.8490474  34.6745398  -7.3199314
 -13.3790474  34.3935398  -8.7099314 -10.0540474  10.5225398  -9.8749314
  -9.2760474  10.0265398  -9.6189314 -10.2710474  11.0445398  -9.1029314
 -12.0040474  30.7425398 -17.5379314 -12.0390474  29.8585398 -17.9039314
 -12.4760474  31.2835398 -18.1709314 -22.2950474  23.2135398 -17.0499314
 -22.9240474  23.9245398 -16.9309314 -21.4440474  23.6135398 -16.8729314
  -7.0570474  32.3535398 -11.5439314  -6.9960474  32.2435398 -12.4929314
  -6.1530474  32.4805398 -11.2579314 -15.2320474  24.1075398  -1.2559314
 -15.5290474  24.0765398  -0.3469314 -14.4550474  23.5485398  -1.2749314
 -18.5450474  31.0325398  -8.5779314 -19.0840474  31.4825398  -7.9269314
 -17.8540474  31.6595398  -8.7919314 -11.2800474  31.7295398  -8.2579314
 -10.9960474  31.7235398  -9.1719314 -11.9600474  32.4025398  -8.2219314
 -19.6020474  30.8195398  -5.3089314 -19.2650474  31.5755398  -5.7899314
 -19.0920474  30.8025398  -4.4989314  -2.8240474  11.5025398 -18.0649314
  -2.4770474  10.8185398 -18.6379314  -3.6850474  11.1785398 -17.7999314
  -3.6890474  37.3725398 -10.1759314  -4.2280474  37.7605398  -9.4869314
  -4.3120474  37.1325398 -10.8619314 -21.9180474   8.4655398   6.2540686
 -21.1330474   8.5365398   5.7110686 -21.6680474   8.8595398   7.0900686
 -22.1280474  25.1575398  -3.5659314 -22.7320474  24.7235398  -2.9629314
 -22.6030474  25.9325398  -3.8649314 -16.1710474  32.6485398  -9.4979314
 -16.0710474  33.5565398  -9.2129314 -16.0410474  32.6785398 -10.4459314
 -12.4770474   9.9145398  -3.7609314 -12.3110474   9.9425398  -2.8179314
 -12.2020474  10.7745398  -4.0779314 -11.6010474  27.6905398   5.8570686
 -10.8700474  27.8015398   5.2490686 -11.4300474  28.3225398   6.5550686
 -19.5790474  27.8435398  -1.2819314 -20.4680474  28.0365398  -0.9829314
 -19.0150474  28.1475398  -0.5719314   3.4279526  16.9915398  -4.7759314
   3.0219526  17.8585398  -4.7559314   2.6899526  16.3815398  -4.7829314
 -19.8040474  30.4165398 -11.3029314 -19.4910474  31.1735398 -10.8069314
 -20.7580474  30.4935398 -11.2819314  -7.4730474  31.7245398   0.5260686
  -6.9040474  31.5825398  -0.2299314  -7.9090474  30.8835398   0.6600686
 -15.8480474  29.9205398 -10.2059314 -15.6470474  30.6825398  -9.6619314
 -16.3610474  29.3475398  -9.6359314 -10.4260474  34.4905398   9.7510686
 -10.7510474  34.4465398  10.6500686 -11.2090474  34.6325398   9.2190686
 -10.8440474  37.3575398  -9.7789314 -11.6820474  37.0095398 -10.0849314
 -10.3890474  37.6235398 -10.5779314 -11.6400474  34.5655398  -2.9569314
 -11.0160474  34.4955398  -3.6789314 -11.6400474  33.6965398  -2.5539314
 -12.0440474  26.9425398 -16.7189314 -12.2380474  27.8745398 -16.6139314
 -11.3480474  26.7695398 -16.0839314  -9.2660474   8.9135398 -17.6359314
 -10.0470474   8.6905398 -18.1419314  -9.2610474   9.8705398 -17.6099314
 -19.7360474   9.0535398 -14.9089314 -18.7810474   9.1205398 -14.9149314
 -20.0320474   9.8785398 -14.5249314 -13.4890474  29.9255398 -11.5089314
 -14.0930474  29.9525398 -10.7669314 -12.6990474  30.3635398 -11.1909314
   5.9449526  32.3835398  -9.0209314   5.2229526  31.7605398  -9.1109314
   5.6359526  33.0175398  -8.3739314 -13.1040474  24.3465398   2.3110686
 -14.0140474  24.6215398   2.4190686 -13.1610474  23.4375398   2.0170686
 -14.9160474  29.7925398  -4.8229314 -14.0180474  29.8025398  -4.4919314
 -14.9320474  30.4725398  -5.4959314   2.5539526  33.6415398 -10.8999314
   1.6669526  33.8895398 -11.1589314   2.9909526  33.4205398 -11.7229314
   1.5659526  29.2985398  -0.4589314   2.4099526  29.5625398  -0.8259314
   1.7919526  28.7065398   0.2590686 -14.6690474  28.1955398   5.7800686
 -14.8620474  27.6555398   6.5470686 -13.7140474  28.1945398   5.7200686
  -9.9590474   9.7755398  -6.9479314  -9.3360474   9.0755398  -6.7509314
 -10.8030474   9.4345398  -6.6529314   6.9329526  35.3665398 -10.5339314
   6.3269526  34.6685398 -10.7869314   7.5219526  34.9545398  -9.9019314
  -9.6360474  34.4915398 -13.9189314  -9.8320474  34.3255398 -12.9969314
 -10.3970474  34.1545398 -14.3909314  -8.9420474  31.6665398  -6.7319314
  -9.8490474  31.5885398  -7.0299314  -8.4350474  31.7825398  -7.5349314
 -14.9440474  31.6715398   5.1170686 -14.2790474  31.1715398   4.6440686
 -14.9550474  32.5255398   4.6830686   5.9089526  37.4335398   0.0650686
   6.4399526  37.2685398   0.8440686   5.0069526  37.3095398   0.3590686
 -15.7100474  10.6555398   0.3140686 -15.1580474   9.8895398   0.1570686
 -16.4610474  10.3145398   0.8010686  -6.2440474  20.7535398 -18.2859314
  -6.7660474  21.5085398 -18.5589314  -6.6780474  20.4355398 -17.4939314
 -11.4660474  24.3345398   4.4610686 -10.8220474  24.8595398   3.9850686
 -12.1240474  24.1085398   3.8040686  -8.4090474  21.3225398 -13.6109314
  -8.5370474  21.1445398 -12.6789314  -9.2920474  21.3115398 -13.9809314
 -12.0140474  28.2205398  -9.5459314 -12.8060474  28.2775398  -9.0119314
 -11.3000474  28.4035398  -8.9349314  -3.8840474  23.1685398 -13.8769314
  -3.7310474  24.0115398 -13.4509314  -4.0880474  22.5705398 -13.1579314
 -16.1410474  36.9435398  -5.2499314 -15.5500474  37.6765398  -5.0759314
 -16.9460474  37.1685398  -4.7839314 -13.1400474  31.0715398   7.1970686
 -13.6270474  31.1095398   6.3730686 -13.1770474  31.9645398   7.5390686
   4.4429526   8.7805398  -6.6499314   4.5999526   8.1435398  -5.9529314
   5.0269526   9.5105398  -6.4439314 -10.7970474  26.8195398 -11.7459314
 -11.1650474  27.0475398 -10.8919314 -11.3450474  27.2885398 -12.3759314
   1.7529526  28.0455398  -6.9979314   1.9949526  27.3365398  -6.4029314
   1.2809526  27.6115398  -7.7089314 -21.4560474  38.1815398  -3.5899314
 -21.4770474  39.1325398  -3.4789314 -20.6250474  38.0105398  -4.0329314
 -16.0770474  29.0125398  -1.5929314 -15.4590474  28.3155398  -1.8119314
 -16.6350474  28.6345398  -0.9129314   2.3099526  23.3365398 -18.1299314
   2.4079526  22.5565398 -18.6769314   1.5269526  23.7715398 -18.4709314
  -4.0420474  36.0805398 -16.1339314  -3.1830474  35.7985398 -15.8209314
  -4.6570474  35.7475398 -15.4809314 -14.5520474  12.6485398 -17.6229314
 -14.4610474  13.2915398 -16.9199314 -15.3730474  12.1945398 -17.4289314
 -11.7080474  37.2335398 -16.0139314 -11.6980474  38.0645398 -15.5379314
 -11.3050474  37.4365398 -16.8589314 -16.7770474  31.9765398   0.6170686
 -16.5830474  31.7595398  -0.2949314 -15.9500474  32.3125398   0.9650686
 -12.6990474  36.9045398  -7.5209314 -11.9020474  36.7665398  -8.0329314
 -12.3870474  37.0745398  -6.6319314  -5.5220474  30.8345398   7.9430686
  -5.2710474  31.3435398   8.7140686  -4.7890474  30.9415398   7.3360686
 -21.2290474  36.9205398 -11.9009314 -20.5600474  36.4115398 -12.3569314
 -22.0140474  36.3745398 -11.9389314   3.0139526  31.2315398  -6.2789314
   2.8179526  31.2145398  -7.2159314   3.1719526  30.3165398  -6.0489314
  -3.6000474  35.1475398  -5.4509314  -3.2990474  35.3455398  -4.5639314
  -3.5480474  34.1935398  -5.5149314 -19.5560474  33.1795398 -10.4169314
 -19.1540474  34.0155398 -10.1819314 -20.3920474  33.4195398 -10.8179314
 -21.4970474  35.2255398 -19.0869314 -20.7210474  35.5385398 -19.5519314
 -21.6750474  34.3665398 -19.4689314   6.6989526  36.3385398  -4.1599314
   7.1949526  35.6045398  -4.5239314   7.3549526  37.0175398  -4.0019314
  -0.5440474  23.1005398 -10.7949314  -1.1700474  23.1365398 -10.0719314
   0.2279526  23.5625398 -10.4669314 -21.3980474  27.5305398  -5.8769314
 -22.0880474  27.9155398  -6.4169314 -20.9050474  26.9735398  -6.4799314
 -18.9650474  35.3375398  -1.3369314 -19.1470474  35.2905398  -2.2749314
 -18.4570474  36.1425398  -1.2319314  -9.6300474  30.5225398  -3.8709314
 -10.5820474  30.4295398  -3.8459314  -9.3900474  30.2965398  -4.7689314
  -9.9540474  29.8365398 -13.1189314  -9.4240474  30.2765398 -13.7839314
 -10.5070474  29.2315398 -13.6139314 -19.4690474  14.6515398 -17.5779314
 -18.9070474  15.3185398 -17.9729314 -18.9340474  14.2695398 -16.8819314
  -5.8980474  32.0685398 -19.3839314  -5.4430474  32.8385398 -19.0429314
  -6.7690474  32.3885398 -19.6199314 -15.7150474  30.9455398   8.6300686
 -16.3020474  30.8355398   7.8820686 -14.8360474  30.8705398   8.2570686
  -4.6510474  21.0685398 -12.0469314  -5.2030474  20.4405398 -12.5129314
  -5.2510474  21.5205398 -11.4539314 -22.7730474  12.0295398 -13.6459314
 -22.9180474  11.1155398 -13.8879314 -22.8370474  12.0375398 -12.6909314
  -7.5700474  29.3235398   8.6510686  -8.2020474  29.9995398   8.4090686
  -6.7300474  29.6545398   8.3310686   3.4659526  31.6185398   2.6640686
   2.9969526  32.3115398   2.2000686   4.3319526  31.6005398   2.2570686
 -14.2140474  13.4065398   6.7360686 -14.3440474  13.3055398   7.6790686
 -14.9430474  13.9575398   6.4500686 -17.8550474   9.4705398   8.1340686
 -17.6730474  10.2795398   7.6570686 -17.9860474   8.8135398   7.4500686
 -10.2940474  30.5195398   5.0440686 -10.1970474  30.2405398   5.9550686
  -9.7700474  29.8935398   4.5440686 -18.1620474  34.9005398 -17.4019314
 -18.0790474  34.1795398 -16.7779314 -18.9820474  35.3315398 -17.1639314
 -13.6340474  34.9335398  -4.7799314 -13.1790474  34.7275398  -3.9639314
 -13.8010474  35.8755398  -4.7309314   0.4619526  37.8245398  -2.5119314
   0.3979526  36.8695398  -2.4969314   0.0849526  38.0765398  -3.3539314
  -6.6540474  31.9195398   2.9750686  -7.0050474  32.0235398   2.0910686
  -7.4140474  32.0265398   3.5490686 -15.9150474  24.4655398   1.2510686
 -16.4890474  24.2075398   1.9730686 -15.9160474  25.4225398   1.2750686
  -6.4990474  36.4015398  -3.4429314  -6.1170474  36.9235398  -2.7389314
  -5.9280474  36.5585398  -4.1959314  -8.7680474  32.6295398   4.6010686
  -9.2790474  31.8485398   4.8110686  -9.3280474  33.1305398   4.0080686
  -9.3720474  25.4675398   2.8630686  -8.8090474  24.8575398   3.3400686
  -9.4810474  25.0685398   2.0000686  -9.4270474  27.9505398   4.0410686
  -9.3080474  27.1415398   3.5430686  -8.7140474  27.9475398   4.6790686
 -17.3920474  29.3345398 -18.8489314 -18.2970474  29.3735398 -19.1589314
 -17.0410474  30.2075398 -19.0229314 -18.9900474  32.2035398   8.4210686
 -19.1350474  31.2675398   8.2810686 -18.3030474  32.2435398   9.0860686
   0.4309526  33.8385398   6.7860686   0.9639526  34.2555398   6.1080686
  -0.2660474  34.4695398   6.9640686  -1.8100474  35.6675398   6.7950686
  -2.1580474  35.8095398   5.9150686  -1.5600474  36.5405398   7.0980686
  -8.2120474  34.2545398   0.1600686  -8.0820474  34.2645398  -0.7889314
  -8.2730474  33.3265398   0.3840686 -11.2520474  37.9585398   5.6400686
 -11.3900474  38.7465398   6.1660686 -10.3160474  37.7755398   5.7230686
 -17.2830474  34.0025398   2.5840686 -16.7750474  34.3975398   1.8750686
 -17.6430474  33.2015398   2.2040686 -14.4500474  11.0245398   5.4460686
 -14.8180474  10.2825398   5.9250686 -14.4410474  11.7395398   6.0820686
 -19.3400474  29.4435398   8.4480686 -20.2140474  29.3305398   8.0750686
 -18.7460474  29.1315398   7.7670686   1.6109526  25.4715398   2.9060686
   2.2109526  24.7775398   3.1790686   0.7829526  25.2575398   3.3350686
 -11.2120474  28.5495398  10.2900686 -12.1000474  28.3695398   9.9810686
 -10.9010474  27.7115398  10.6300686 -12.2730474  29.5455398  -3.7349314
 -11.8590474  28.7965398  -3.3069314 -12.0210474  29.4665398  -4.6549314
 -15.1090474  26.0775398   7.4830686 -14.9590474  26.5635398   8.2940686
 -14.2390474  25.7835398   7.2140686  -8.2160474  36.0715398   9.9710686
  -9.1140474  35.8315398  10.1980686  -8.3070474  36.6635398   9.2240686
  -8.3080474  37.2745398   4.0270686  -7.7610474  36.8335398   4.6780686
  -8.2610474  38.2005398   4.2620686 -14.8980474  34.0835398   9.6260686
 -15.5630474  34.4685398  10.1970686 -15.3410474  33.9665398   8.7860686
  -5.6740474  34.3105398   4.7470686  -4.9180474  34.2275398   4.1660686
  -6.2660474  33.6105398   4.4720686  -6.5270474  33.4985398  -2.9599314
  -6.9290474  33.4495398  -3.8269314  -6.2160474  34.4005398  -2.8899314
 -23.0120474  34.1625398   3.4720686 -23.1250474  33.3665398   3.9910686
 -22.0720474  34.2025398   3.2950686 -14.1770474  33.7565398 -16.6989314
 -13.4570474  33.8265398 -17.3249314 -14.6170474  34.6055398 -16.7439314
 -17.4240474  25.4985398   5.9760686 -17.5330474  24.5915398   6.2640686
 -16.5660474  25.7555398   6.3140686 -12.9910474  12.0245398   2.3410686
 -13.7950474  11.9315398   2.8520686 -12.4010474  11.3605398   2.6970686
 -11.5720474  37.4225398   8.4150686 -12.5220474  37.4165398   8.2970686
 -11.2190474  37.2675398   7.5390686 -14.4260474  21.1275398  -6.7079314
 -14.1520474  21.6815398  -7.4379314 -13.6610474  20.5835398  -6.5189314
 -18.0410474  30.4765398 -14.9899314 -17.4260474  30.8075398 -15.6449314
 -17.5220474  30.4055398 -14.1879314 -21.7260474  32.3385398 -17.2009314
 -21.2060474  31.8425398 -17.8329314 -21.2880474  32.1925398 -16.3629314
 -21.6340474  29.3915398   2.8430686 -21.3840474  28.7235398   2.2050686
 -20.9480474  30.0555398   2.7770686 -15.4970474  34.6725398   0.5740686
 -15.4850474  35.1195398  -0.2719314 -14.6680474  34.9175398   0.9860686
 -12.0650474  10.6615398   8.6460686 -12.9450474  10.4625398   8.3260686
 -12.1890474  10.8805398   9.5690686 -10.7490474  29.5645398   7.6890686
 -11.5560474  30.0595398   7.5450686 -10.4710474  29.8105398   8.5710686
  -1.2640474  34.3285398  -0.2349314  -1.0260474  33.9595398  -1.0849314
  -1.7720474  33.6375398   0.1920686 -21.0000474  34.5135398   6.9550686
 -21.8800474  34.8515398   6.7930686 -21.1000474  33.9375398   7.7130686
   3.5909526  31.8805398 -15.5929314   4.3579526  31.7665398 -16.1539314
   3.2429526  32.7385398 -15.8339314 -10.8030474  36.8075398   2.6690686
 -10.0470474  36.8185398   3.2560686 -10.9960474  37.7315398   2.5090686
 -16.0050474  38.1295398   4.9190686 -15.5050474  37.5955398   5.5360686
 -15.3730474  38.3705398   4.2420686  -7.0310474  10.5745398   2.2160686
  -7.3950474  10.4265398   3.0890686  -6.1270474  10.2665398   2.2780686
 -14.0150474  30.1415398   0.3740686 -14.6790474  30.0615398  -0.3109314
 -13.9240474  29.2555398   0.7250686  -3.5690474  27.8695398   0.8540686
  -3.8810474  27.5825398  -0.0039314  -4.3660474  28.0585398   1.3490686
  -5.8080474  24.1955398   6.4240686  -5.1350474  24.8755398   6.3820686
  -6.6160474  24.6695398   6.6190686  -9.8450474  10.0245398   0.5170686
  -8.9450474  10.0745398   0.8400686  -9.9700474   9.1015398   0.2970686
 -14.6570474   9.7375398   8.6600686 -15.3140474   9.8785398   9.3420686
 -14.7210474   8.8035398   8.4560686 -12.7740474  30.4845398   3.6830686
 -12.6140474  30.9695398   2.8730686 -11.9140474  30.4195398   4.0980686
  -4.4230474  16.4985398 -17.8759314  -3.7100474  16.8525398 -17.3449314
  -4.8590474  17.2705398 -18.2379314  -7.7780474  25.7315398   6.9130686
  -7.6690474  26.1625398   7.7610686  -8.3650474  24.9975398   7.0910686
 -15.6310474  34.8815398   6.8120686 -16.5560474  34.7555398   6.5990686
 -15.1900474  34.8965398   5.9630686  -8.4570474  29.3805398 -15.7049314
  -8.5420474  29.2375398 -16.6479314  -7.8870474  28.6725398 -15.4059314
 -15.7700474  36.0175398  -1.7989314 -16.0810474  35.7465398  -2.6629314
 -16.3690474  36.7165398  -1.5369314  -7.1120474  37.1935398 -16.2299314
  -7.2480474  36.2675398 -16.4299314  -7.7800474  37.6505398 -16.7409314
 -13.8240474   9.6465398 -18.3079314 -14.5080474   8.9765398 -18.3319314
 -14.2370474  10.4245398 -18.6809314 -14.8770474  37.6385398  -8.9459314
 -14.2980474  37.3165398  -8.2559314 -15.3990474  38.3195398  -8.5219314
 -10.0770474  25.3315398  -5.6179314 -10.4450474  24.4515398  -5.5459314
 -10.7160474  25.8165398  -6.1409314 -14.4870474  37.0575398   8.3140686
 -14.8130474  36.4735398   7.6290686 -14.8890474  36.7305398   9.1190686
  -9.7880474  23.7055398   6.8760686  -9.9100474  22.7565398   6.8530686
  -9.7070474  23.9585398   5.9560686 -17.4080474   8.6465398   1.4140686
 -17.7580474   9.2735398   2.0470686 -17.5460474   7.7915398   1.8230686
  -8.2390474  16.2665398 -14.1279314  -7.5470474  16.1455398 -14.7779314
  -8.5100474  15.3775398 -13.8989314 -10.6670474  14.8165398 -11.6059314
  -9.8460474  14.3895398 -11.8489314 -11.3330474  14.3725398 -12.1309314
 -12.1360474  14.6815398  10.4830686 -11.7890474  15.3595398  11.0620686
 -12.7560474  15.1425398   9.9170686   2.0509526  23.5875398 -13.0679314
   1.1619526  23.8145398 -13.3419314   2.5819526  24.3405398 -13.3259314
  -3.5330474  16.0165398  -6.6909314  -3.3460474  16.4495398  -7.5239314
  -3.9300474  16.6985398  -6.1489314   0.5269526  16.5705398  -4.8829314
   0.1529526  16.9385398  -5.6839314   0.1609526  15.6875398  -4.8309314
   4.5689526  12.4645398  -8.8299314   4.4269526  12.7645398  -9.7269314
   4.8039526  11.5405398  -8.9189314   0.9319526  16.3815398  -8.3499314
   0.3549526  16.9555398  -8.8529314   1.5929526  16.0945398  -8.9799314
   1.2299526   9.8205398  -8.5409314   0.3139526   9.9395398  -8.2909314
   1.1999526   9.2125398  -9.2789314 -22.8490474  15.1985398  -1.8999314
 -22.1310474  15.8025398  -1.7109314 -23.1920474  15.4915398  -2.7439314
  -3.5220474  20.4945398 -17.7749314  -4.4650474  20.5895398 -17.9099314
  -3.3490474  19.5675398 -17.9419314  -4.2870474  13.3605398  -6.9749314
  -3.7170474  12.9535398  -7.6279314  -3.9130474  14.2315398  -6.8389314
   4.8509526  11.2555398 -15.5339314   5.3059526  10.4885398 -15.8819314
   4.1309526  11.4055398 -16.1459314  -7.0400474  15.4875398 -18.8229314
  -7.7070474  15.3225398 -18.1559314  -6.4530474  16.1275398 -18.4219314
  -3.3760474  25.7105398   7.1630686  -2.6180474  25.3435398   6.7080686
  -3.3720474  25.2825398   8.0190686   2.5409526  15.4405398 -13.9839314
   1.9759526  14.6775398 -14.1049314   2.8539526  15.6495398 -14.8649314
 -22.4470474  31.3615398  -6.2249314 -22.6970474  30.4535398  -6.3949314
 -21.5500474  31.3065398  -5.8959314  -8.1120474  19.7295398   1.0120686
  -8.7890474  20.2025398   0.5280686  -7.5320474  20.4155398   1.3450686
  -4.4440474  32.2745398 -10.2949314  -4.0720474  33.0865398 -10.6369314
  -3.9950474  31.5815398 -10.7789314  -6.2020474  15.4765398 -15.5969314
  -5.7130474  15.9855398 -16.2439314  -6.1250474  14.5705398 -15.8969314
 -17.2940474  12.3865398  -1.5209314 -16.7800474  11.8855398  -0.8889314
 -17.8000474  11.7265398  -1.9959314   2.3869526  14.0875398   0.2560686
   3.2619526  13.7525398   0.0600686   2.0119526  14.2945398  -0.5999314
 -12.4020474  15.6055398   1.4310686 -11.5620474  15.2635398   1.1230686
 -12.2810474  15.7255398   2.3730686 -17.4790474  17.3955398  -6.1369314
 -18.3650474  17.3145398  -5.7849314 -17.5030474  18.1935398  -6.6659314
   6.6229526   9.1705398 -16.1069314   7.2859526   9.2335398 -16.7939314
   6.2329526   8.3045398 -16.2289314  -3.7890474  19.7915398  -5.6469314
  -4.1790474  19.8695398  -6.5179314  -4.1470474  20.5305398  -5.1559314
   0.5409526  25.0845398  -1.5629314   0.0999526  25.7165398  -2.1309314
  -0.0670474  24.9505398  -0.8359314 -21.6670474  33.8525398  -8.3939314
 -21.0260474  33.2695398  -8.8009314 -22.4690474  33.3325398  -8.3459314
 -22.3510474  11.9075398 -17.3769314 -22.0060474  12.4125398 -18.1129314
 -23.2900474  11.8405398 -17.5509314   2.5429526  31.4715398 -13.1359314
   3.2539526  31.0625398 -12.6419314   2.9159526  31.6355398 -14.0019314
  -3.0810474  20.6325398 -14.6429314  -2.6220474  20.7925398 -13.8189314
  -3.3550474  21.5005398 -14.9379314   2.6509526  19.6025398  -4.0079314
   2.2089526  19.0675398  -3.3489314   1.9489526  20.1125398  -4.4129314
 -21.2140474  23.0335398 -13.8289314 -21.8360474  22.9835398 -14.5559314
 -21.1480474  22.1345398 -13.5079314  -1.2840474  27.9575398 -18.2799314
  -0.5060474  27.5535398 -17.8969314  -1.5240474  28.6495398 -17.6639314
   6.3079526  32.2365398 -13.6449314   6.4559526  32.7895398 -14.4119314
   6.5209526  31.3515398 -13.9419314  -1.6430474   9.2265398 -10.8999314
  -1.5100474   9.5705398 -10.0169314  -2.3180474   8.5555398 -10.7959314
   0.4529526  13.5155398  -7.6679314   0.8549526  14.3515398  -7.9059314
   1.1939526  12.9355398  -7.4899314  -0.3780474  32.3835398  -3.2139314
   0.4099526  32.2965398  -2.6779314  -0.0510474  32.5375398  -4.0999314
 -22.7360474  20.3035398  -7.8769314 -22.4690474  20.0755398  -6.9869314
 -22.0100474  20.8235398  -8.2199314   2.8269526  27.6165398 -11.3029314
   1.9399526  27.5985398 -10.9439314   3.2769526  26.8945398 -10.8659314
  -6.2560474  18.0395398 -12.3829314  -6.6240474  17.5725398 -13.1339314
  -5.3520474  17.7315398 -12.3279314  -4.5670474  34.2175398 -13.4399314
  -4.0440474  33.4705398 -13.7319314  -5.3130474  34.2365398 -14.0389314
 -18.1170474  34.2835398 -14.2349314 -18.5570474  35.1075398 -14.0229314
 -18.8300474  33.6655398 -14.3949314   0.3319526  31.6365398  -8.9909314
   0.0609526  32.1955398  -9.7199314  -0.3590474  30.9775398  -8.9259314
   2.8279526  34.9845398  -3.4829314   2.6299526  34.0895398  -3.7569314
   1.9759526  35.3635398  -3.2669314 -22.8790474  14.8055398 -12.1939314
 -23.4570474  14.3645398 -12.8179314 -22.2010474  15.2075398 -12.7379314
 -17.4990474  10.1095398  -5.3819314 -16.5570474  10.0165398  -5.5289314
 -17.7900474  10.7155398  -6.0629314  -1.9310474  19.8215398   8.6210686
  -1.4250474  19.2095398   9.1550686  -1.4380474  19.8905398   7.8030686
 -10.8690474  12.2595398 -19.1739314 -11.4610474  12.9825398 -19.3809314
 -10.1940474  12.3005398 -19.8519314 -14.3600474  12.8695398  -0.0549314
 -13.7530474  12.5665398   0.6210686 -15.0950474  12.2575398  -0.0079314
  -1.6760474  10.2005398  -8.4329314  -1.8530474  10.2185398  -7.4929314
  -1.8120474  11.1035398  -8.7199314  -0.7930474  14.6945398  -3.0219314
  -1.3340474  15.2885398  -2.5019314  -1.2290474  14.6545398  -3.8729314
  -5.8640474  18.2475398  10.6120686  -5.9770474  19.1845398  10.7670686
  -5.5500474  18.1895398   9.7090686   5.0849526  10.0145398 -10.1869314
   4.7589526   9.2445398  -9.7219314   4.6759526   9.9645398 -11.0509314
 -18.7250474  27.7315398  -3.9209314 -19.6350474  27.9295398  -4.1419314
 -18.6730474  27.8635398  -2.9749314  -1.3380474  24.5585398  -0.0219314
  -1.6510474  25.0255398   0.7520686  -0.8820474  23.7925398   0.3270686
   1.6789526  21.2745398  -1.4239314   2.4209526  20.7625398  -1.7469314
   2.0789526  21.9895398  -0.9279314 -20.2140474  12.5605398   2.3880686
 -20.6040474  12.0575398   1.6730686 -19.9100474  13.3685398   1.9730686
   0.0619526  38.2415398 -12.8029314  -0.5920474  38.5785398 -12.1909314
   0.7339526  37.8495398 -12.2439314   7.1219526  17.8265398 -12.1359314
   6.1859526  17.7245398 -11.9639314   7.2619526  17.3815398 -12.9709314
 -10.7700474  15.9265398  -7.2609314  -9.8300474  15.9015398  -7.4399314
 -10.9430474  15.1205398  -6.7749314  -0.6530474  20.8325398  -7.9999314
  -1.1580474  21.6245398  -8.1839314  -0.7020474  20.3235398  -8.8089314
 -20.2730474  17.3975398 -10.8489314 -19.8500474  17.5995398 -10.0139314
 -21.1390474  17.7985398 -10.7819314 -20.9430474  16.7225398  -1.0559314
 -20.0920474  17.1265398  -0.8879314 -21.5010474  17.0325398  -0.3429314
   4.5939526  14.4285398  -6.8069314   4.7249526  13.6035398  -7.2749314
   4.5229526  15.0875398  -7.4979314 -16.8440474  11.9755398 -16.1479314
 -17.1970474  12.8395398 -15.9339314 -17.5340474  11.5565398 -16.6629314
  -2.7470474  11.7195398 -12.3089314  -2.1210474  11.1535398 -11.8559314
  -3.4810474  11.8005398 -11.7009314  -6.0620474  38.1325398  -8.8629314
  -6.5890474  37.5465398  -8.3199314  -6.6310474  38.3555398  -9.5989314
 -17.0230474  18.7515398 -14.1189314 -17.2740474  19.3075398 -13.3809314
 -17.0370474  19.3365398 -14.8759314  -0.8590474  36.3185398   1.8950686
  -0.6180474  35.7835398   1.1390686  -0.5020474  37.1855398   1.6990686
   3.0949526  36.9215398   1.0940686   2.4779526  36.3395398   0.6490686
   2.7689526  37.8025398   0.9090686  -6.9580474  24.4155398 -18.8079314
  -7.8400474  24.0775398 -18.6549314  -6.5190474  23.7235398 -19.3029314
  -0.7450474  16.2385398 -10.8479314   0.1689526  15.9545398 -10.8799314
  -0.7820474  16.9945398 -11.4339314   1.4769526  19.3685398 -12.2449314
   1.7849526  19.8155398 -11.4569314   2.1889526  19.4765398 -12.8759314
  -2.4430474  36.0685398  -2.9809314  -2.8950474  36.8785398  -2.7429314
  -2.9970474  35.3715398  -2.6309314  -5.7300474  32.9565398  -7.8889314
  -5.7760474  32.5625398  -8.7599314  -5.0330474  33.6095398  -7.9569314
   4.2009526  16.3935398  -8.7239314   3.7599526  17.1305398  -8.3009314
   4.3759526  16.6985398  -9.6149314   1.5209526  16.7035398 -19.3169314
   2.0899526  17.3035398 -19.7989314   2.0399526  16.4395398 -18.5569314
  -2.4640474  14.1955398 -13.5319314  -2.2200474  13.4095398 -13.0439314
  -1.6290474  14.5705398 -13.8149314 -18.8110474  25.7045398   1.4210686
 -19.3520474  26.1005398   0.7380686 -18.1250474  26.3515398   1.5890686
   0.1309526  34.1695398 -11.7349314  -0.6930474  34.5855398 -11.9879314
   0.1489526  33.3505398 -12.2299314  -7.8390474  11.5805398  -7.5099314
  -6.9790474  11.1725398  -7.6129314  -8.3330474  10.9665398  -6.9659314
 -21.6550474  15.2815398  -5.3199314 -22.5430474  15.2085398  -4.9729314
 -21.3620474  16.1515398  -5.0499314 -21.7060474  26.8025398 -11.3239314
 -21.1230474  26.9305398 -10.5749314 -22.4960474  26.4125398 -10.9499314
 -12.0590474  26.5135398   1.0810686 -11.3930474  26.3475398   0.4140686
 -12.2170474  25.6585398   1.4810686   2.4189526  21.9735398  -7.9019314
   2.1229526  22.7015398  -7.3559314   3.2089526  21.6535398  -7.4659314
   4.2019526  36.3265398  -5.1829314   3.7199526  35.8195398  -4.5299314
   5.0999526  36.3515398  -4.8529314   1.8779526  10.5855398 -13.5839314
   1.2739526   9.8425398 -13.5709314   2.7479526  10.1865398 -13.5789314
  -3.4920474  23.6385398  -3.3899314  -2.6770474  23.1435398  -3.4769314
  -3.2100474  24.5245398  -3.1619314   4.8559526  22.0695398 -15.6359314
   4.8289526  22.3125398 -14.7109314   4.9909526  22.8975398 -16.0979314
 -17.7410474  22.9895398  -3.1049314 -17.0690474  22.9075398  -2.4289314
 -18.4900474  23.3785398  -2.6539314  -0.0630474  22.8545398   9.8030686
   0.1629526  23.7645398   9.9980686  -0.5700474  22.9025398   8.9930686
   1.5949526  12.2565398 -11.1459314   1.7559526  11.5965398 -11.8199314
   2.4589526  12.4335398 -10.7719314   4.9819526  24.4305398 -17.6689314
   4.1529526  23.9655398 -17.7879314   5.3599526  24.4745398 -18.5469314
  -1.4890474  14.4295398  -5.7569314  -2.1650474  14.9245398  -6.2199314
  -0.8710474  14.1705398  -6.4409314 -18.5040474  19.3405398 -18.4349314
 -19.2100474  19.9135398 -18.1359314 -17.7860474  19.5045398 -17.8229314
  -4.9610474  25.6455398  -8.1869314  -5.0040474  24.7095398  -8.3839314
  -4.0920474  25.7685398  -7.8029314   2.5709526  20.4345398 -10.0769314
   2.2099526  20.9825398  -9.3799314   3.3699526  20.0645398  -9.7019314
   4.3279526  13.4405398 -11.4219314   4.4809526  14.3615398 -11.2089314
   4.6509526  13.3455398 -12.3179314   1.2289526  17.4415398   4.8930686
   0.5529526  16.9005398   4.4860686   2.0109526  16.8895398   4.8930686
  -6.1240474  26.8915398 -17.8019314  -6.1880474  26.0005398 -18.1459314
  -5.4970474  27.3265398 -18.3789314  -0.0610474  22.0425398   0.4770686
   0.6509526  21.7415398  -0.0879314  -0.8030474  21.4835398   0.2460686
   0.3489526   8.9395398  -5.2579314   0.7939526   8.2325398  -5.7249314
   1.0389526   9.5755398  -5.0709314 -14.3960474  27.3955398 -14.7889314
 -14.4650474  26.4655398 -14.5729314 -15.0360474  27.5275398 -15.4879314
 -21.9950474  20.6685398 -15.9699314 -22.1430474  21.3305398 -16.6449314
 -22.6650474  20.0045398 -16.1339314  -6.6480474  14.1335398  -7.6779314
  -5.7540474  13.8235398  -7.5379314  -7.1830474  13.3405398  -7.6569314
   2.3509526  10.9925398  -4.3329314   3.2499526  10.6685398  -4.2689314
   2.2029526  11.1055398  -5.2719314   3.1269526  18.2405398  -7.0619314
   3.4429526  17.5725398  -6.4529314   2.1899526  18.3085398  -6.8779314
   0.1109526  16.9045398 -15.9779314   0.3049526  17.8405398 -16.0329314
   0.5279526  16.6205398 -15.1639314  -4.5130474  10.2375398 -14.9759314
  -4.7380474   9.5025398 -14.4059314  -3.5570474  10.2775398 -14.9489314
  -3.0000474  16.8375398  -9.4169314  -3.0000474  17.7215398  -9.7839314
  -2.2960474  16.3855398  -9.8799314  -0.2180474  19.8405398   6.6690686
  -0.1460474  19.0265398   6.1700686   0.6739526  20.0185398   6.9680686
  -0.5670474  26.2935398  -5.7549314  -0.4310474  27.0275398  -5.1569314
  -1.4140474  26.4705398  -6.1649314  -4.3560474  27.3965398   5.1990686
  -4.1160474  26.7705398   5.8830686  -3.5570474  27.8985398   5.0420686
 -21.9310474  20.2545398 -13.0169314 -22.1040474  20.0395398 -13.9339314
 -22.0720474  19.4325398 -12.5469314  -4.3650474  14.7055398 -10.5369314
  -4.2230474  14.7755398 -11.4809314  -4.0510474  15.5375398 -10.1839314
  -5.3270474  10.5875398  -7.7839314  -5.3740474  10.3955398  -6.8469314
  -5.4680474   9.7425398  -8.2089314   0.1779526  14.5155398 -17.1969314
   0.2079526  15.4335398 -16.9279314  -0.3330474  14.5185398 -18.0059314
  -3.4800474  37.4885398 -18.6139314  -2.5230474  37.4805398 -18.6199314
  -3.7200474  36.9685398 -17.8469314   7.0899526  11.7825398 -10.7479314
   6.3779526  11.1575398 -10.6109314   6.7139526  12.6305398 -10.5139314
 -14.9870474   9.3995398 -12.4219314 -14.5240474   9.8745398 -11.7319314
 -15.2980474  10.0825398 -13.0159314   3.1529526  14.6725398 -16.6099314
   3.8659526  14.9465398 -17.1869314   2.5659526  14.1715398 -17.1759314
   2.5019526  29.2855398 -17.9509314   2.5899526  29.4705398 -18.8859314
   3.3139526  28.8355398 -17.7179314  -9.2040474   9.2785398   9.3110686
 -10.1010474   9.1455398   9.6160686  -8.6650474   9.1625398  10.0940686
  -1.9680474  12.8545398  -1.7279314  -2.3280474  12.3765398  -2.4749314
  -1.3860474  13.5065398  -2.1189314  -3.3580474  21.9255398   9.8370686
  -3.2890474  21.4035398  10.6370686  -2.9710474  21.3745398   9.1570686
   6.4949526  18.2475398 -18.2669314   6.8729526  18.0875398 -19.1309314
   5.9779526  17.4625398 -18.0819314 -20.3070474  24.8555398   8.1220686
 -20.5410474  24.5125398   7.2600686 -19.3750474  24.6555398   8.2150686
  -1.4900474  21.6775398   4.7710686  -1.2890474  20.8115398   5.1270686
  -1.6310474  21.5265398   3.8370686 -21.9340474  22.3935398   7.3130686
 -21.6320474  22.4805398   8.2170686 -21.1660474  22.0855398   6.8320686
  -1.1460474  21.8315398 -17.0989314  -1.1360474  22.1775398 -17.9909314
  -1.9540474  21.3205398 -17.0489314 -22.2270474  12.9515398   7.0970686
 -22.0880474  12.8055398   6.1620686 -22.0330474  13.8795398   7.2270686
   5.1209526  34.2405398 -19.2819314   4.7419526  34.8545398 -19.9119314
   5.8809526  34.7015398 -18.9269314 -19.9930474  18.7265398   3.4370686
 -20.5840474  19.2945398   2.9420686 -19.4100474  19.3305398   3.8970686
   5.8499526  36.6545398 -16.4349314   5.9659526  35.7555398 -16.1269314
   6.5679526  36.7925398 -17.0519314 -20.2610474  15.5425398   3.8470686
 -19.9940474  16.3545398   3.4150686 -20.8060474  15.0945398   3.1990686
  -0.4770474  32.9415398 -18.6639314  -1.2530474  32.8695398 -18.1079314
  -0.4040474  32.0855398 -19.0859314 -19.6750474  27.1685398   5.3080686
 -20.3000474  26.4445398   5.3320686 -18.8270474  26.7615398   5.4850686
 -17.7270474  23.7155398   9.2480686 -17.6600474  23.1165398   8.5050686
 -16.8190474  23.8875398   9.4990686  -3.3530474  27.7295398 -14.6909314
  -3.0820474  26.9715398 -15.2079314  -3.3380474  28.4595398 -15.3099314
   4.0299526  19.0415398 -13.9349314   4.3869526  19.9065398 -13.7369314
   4.6329526  18.6755398 -14.5829314  -0.7230474  15.8195398   3.7510686
  -0.2770474  15.7005398   2.9130686  -0.9250474  14.9305398   4.0440686
   0.1449526  35.2925398  -3.5269314  -0.7920474  35.2905398  -3.3329314
   0.2679526  34.5525398  -4.1219314 -21.1960474  13.2185398 -15.2559314
 -21.5170474  12.8015398 -16.0559314 -21.8240474  12.9595398 -14.5819314
   3.8019526  37.3645398 -18.2589314   4.6219526  37.0135398 -17.9119314
   3.4219526  37.8535398 -17.5289314   1.3459526  32.0135398  -1.1149314
   1.3659526  31.2275398  -0.5679314   2.2389526  32.0945398  -1.4509314
   4.4989526  36.5145398   8.8750686   3.9559526  37.0455398   9.4590686
   5.1589526  37.1235398   8.5430686 -16.7480474  30.0015398   5.8960686
 -16.2870474  30.7795398   5.5830686 -16.1090474  29.2935398   5.8100686
   1.2659526  26.9795398 -17.7169314   1.6239526  27.8445398 -17.9179314
   1.9179526  26.5775398 -17.1419314   2.3349526  23.6065398  -0.2439314
   1.7709526  23.8105398   0.5030686   2.1179526  24.2715398  -0.8969314
   4.9789526  11.4095398 -18.6939314   4.2289526  10.8365398 -18.5329314
   4.6609526  12.2865398 -18.4829314  -5.3210474  14.4155398   2.3820686
  -4.9830474  13.5215398   2.4320686  -4.6700474  14.8905398   1.8650686
  -2.8420474  15.0725398   1.1940686  -2.4990474  14.2105398   0.9590686
  -2.0630474  15.6075398   1.3460686  -5.0300474  16.0955398   4.6390686
  -5.1520474  15.1465398   4.6090686  -5.8940474  16.4415398   4.8650686
  -1.3460474  24.1535398   5.9370686  -0.6680474  23.9735398   6.5880686
  -1.5230474  23.3035398   5.5330686   1.0909526  13.1775398 -14.4119314
   0.9749526  12.9935398 -15.3439314   1.3379526  12.3355398 -14.0299314
 -20.3930474  12.2615398   9.5110686 -20.5700474  13.2005398   9.5540686
 -20.9050474  11.9535398   8.7630686 -13.0200474  20.2765398  -2.3039314
 -12.7090474  19.6945398  -1.6109314 -12.7870474  19.8265398  -3.1169314
 -20.6560474  24.4325398   5.2290686 -21.4170474  23.9395398   4.9240686
 -19.9030474  23.9225398   4.9300686  -2.9070474  17.6745398   3.9260686
  -2.1090474  17.1465398   3.9730686  -3.6060474  17.0755398   4.1900686
   0.6959526  21.1915398  -5.2899314   0.3969526  21.0985398  -6.1939314
   0.9559526  22.1095398  -5.2159314  -0.9830474  26.9295398   7.9410686
  -1.2240474  27.6885398   8.4720686  -1.7040474  26.3115398   8.0630686
   0.1869526  15.5645398   1.2490686   0.6619526  16.2605398   0.7950686
   0.6729526  14.7665398   1.0390686 -22.7890474  15.6445398   5.5530686
 -21.9090474  15.7785398   5.1990686 -23.2320474  16.4825398   5.4180686
  -1.6270474  12.6835398  -9.2459314  -0.7390474  12.9015398  -8.9629314
  -1.9530474  13.4875398  -9.6519314 -17.6320474  20.0265398 -11.9349314
 -18.0650474  19.3935398 -11.3609314 -17.3350474  20.7195398 -11.3459314
 -16.8580474  14.5095398  -6.4929314 -16.1480474  14.3965398  -7.1249314
 -16.9300474  15.4565398  -6.3789314   4.0589526  34.5935398   2.6920686
   4.9809526  34.6845398   2.9360686   3.8959526  35.3225398   2.0940686
 -22.4010474  18.2365398  -5.5849314 -23.0830474  18.2515398  -4.9129314
 -22.6850474  17.5595398  -6.1999314  -0.9030474  22.4175398  -3.3649314
  -0.2620474  21.8495398  -3.7929314  -0.4200474  22.8215398  -2.6439314
  -1.5590474  32.0545398   7.6720686  -0.8580474  32.6085398   7.3280686
  -2.0900474  32.6435398   8.2070686 -19.7730474  24.3795398  -2.0409314
 -19.6220474  25.2065398  -1.5839314 -20.5860474  24.5185398  -2.5269314
 -23.0360474  17.6985398   7.9670686 -22.4700474  17.9675398   7.2430686
 -22.4570474  17.2195398   8.5600686  -9.1680474  14.9235398  -3.8439314
  -8.6650474  15.3185398  -4.5559314  -9.4820474  15.6685398  -3.3309314
 -18.9960474  22.7865398   0.6130686 -19.5860474  23.5165398   0.7980686
 -19.0400474  22.6775398  -0.3369314  -3.5570474  17.5655398   0.4820686
  -3.9400474  18.3685398   0.8350686  -3.7980474  16.8865398   1.1130686
  -5.6940474  10.7125398  -5.2199314  -5.4530474  10.1545398  -4.4799314
  -5.9140474  11.5555398  -4.8229314 -17.4490474  22.7875398   6.6540686
 -18.0590474  22.1525398   6.2770686 -16.6420474  22.2925398   6.7910686
 -16.7340474  12.1165398   4.3780686 -15.8780474  11.9045398   4.7510686
 -17.2830474  12.3155398   5.1360686 -22.2590474  22.5945398   4.0420686
 -23.1980474  22.4185398   4.0980686 -21.9290474  21.9415398   3.4250686
 -20.8560474  20.9755398   2.1890686 -20.1320474  21.5195398   1.8800686
 -21.5910474  21.2095398   1.6230686   4.5639526  16.7665398 -12.1059314
   4.1689526  17.5265398 -12.5339314   4.5429526  16.0795398 -12.7719314
 -18.2710474  16.6765398 -19.1219314 -18.3600474  17.6125398 -18.9429314
 -17.3300474  16.5105398 -19.0669314 -19.3310474  13.7645398  -4.7599314
 -18.6230474  14.2175398  -5.2189314 -20.0630474  14.3815398  -4.7789314
  -8.5420474  17.0655398   1.0080686  -8.4830474  18.0175398   1.0850686
  -8.5120474  16.8985398   0.0660686 -20.4760474  37.9185398   1.8390686
 -21.1430474  37.2335398   1.8210686 -20.7660474  38.5535398   1.1840686
  -3.2700474  25.5335398   2.1830686  -2.6350474  25.7285398   2.8720686
  -3.5030474  26.3885398   1.8210686 -21.2000474  13.0295398  -2.1209314
 -21.6420474  12.5835398  -2.8439314 -21.8290474  13.6875398  -1.8249314
 -19.1240474  11.6095398 -13.9419314 -18.1700474  11.6865398 -13.9089314
 -19.4070474  12.3545398 -14.4719314  -0.6000474  18.8265398   2.2810686
  -1.1890474  19.5765398   2.1910686  -1.1470474  18.1365398   2.6580686
  -4.3940474  34.1715398 -18.7659314  -4.2970474  35.0735398 -18.4599314
  -3.7130474  34.0705398 -19.4319314   1.4099526  23.7885398  -6.0499314
   0.8279526  24.5175398  -6.2629314   1.9719526  24.1265398  -5.3519314
  -0.3630474  24.0475398 -15.1949314  -1.0210474  24.5585398 -15.6669314
  -0.4200474  23.1715398 -15.5759314  -3.3560474   8.5295398  -2.2459314
  -3.0580474   8.8195398  -3.1079314  -4.2300474   8.9075398  -2.1539314
   1.6679526  34.6545398   0.2850686   2.4019526  34.2045398  -0.1339314
   0.8919526  34.3135398  -0.1609314  -0.9390474  38.2015398 -15.1929314
  -1.4180474  39.0235398 -15.0969314  -0.6170474  38.0065398 -14.3129314
  -3.1320474  32.4685398  -5.9229314  -2.6320474  32.6115398  -6.7269314
  -2.5300474  31.9975398  -5.3469314  -6.6730474  11.0635398 -12.4469314
  -6.4120474  10.1875398 -12.7299314  -5.8530474  11.4905398 -12.2009314
  -5.0550474  12.1195398 -10.6599314  -4.8880474  13.0495398 -10.5039314
  -5.2150474  11.7545398  -9.7899314  -2.5810474  32.5785398 -16.6589314
  -3.3050474  33.0675398 -17.0479314  -2.6600474  32.7405398 -15.7189314
   4.2389526  29.8855398 -11.3569314   4.1069526  30.4695398 -10.6099314
   3.4559526  29.3355398 -11.3739314  -1.7960474  10.5815398 -14.7439314
  -1.7990474  11.1305398 -13.9589314  -1.3490474  11.1105398 -15.4049314
  -0.9020474  18.6105398  -3.2629314  -0.9270474  18.7895398  -4.2039314
  -0.0220474  18.2655398  -3.1079314  -6.3010474  26.5615398  -6.1279314
  -6.1810474  25.9715398  -6.8719314  -5.4630474  27.0145398  -6.0439314
   4.9539526  25.9025398 -10.1219314   4.8369526  25.7685398  -9.1819314
   5.3979526  26.7485398 -10.1899314 -21.8770474  34.0745398  -5.5119314
 -22.7010474  33.7105398  -5.1899314 -21.6790474  33.5625398  -6.2959314
 -20.9760474  38.1585398  -0.8409314 -20.6630474  37.2545398  -0.8279314
 -21.3990474  38.2535398  -1.6949314 -21.7540474  26.9315398   0.5570686
 -22.6390474  27.2515398   0.3830686 -21.8750474  26.0165398   0.8120686
 -20.8300474  36.8045398 -15.9749314 -21.2620474  37.2455398 -16.7059314
 -20.4430474  37.5145398 -15.4619314  -5.4510474  28.0855398 -12.5499314
  -6.3390474  27.7405398 -12.4559314  -5.1890474  27.8345398 -13.4359314
   2.5919526  33.8255398   9.3030686   3.4399526  33.3865398   9.2270686
   2.1339526  33.6035398   8.4920686  -2.9780474  32.0175398 -14.0309314
  -3.4510474  31.1855398 -14.0139314  -2.0640474  31.7765398 -13.8799314
   0.1339526  30.0965398  -5.9919314  -0.3410474  30.0805398  -6.8229314
   1.0419526  29.9105398  -6.2309314  -1.3840474  35.4945398 -15.5489314
  -1.0770474  35.1735398 -16.3969314  -1.1090474  36.4115398 -15.5259314
  -0.3440474  31.6535398 -13.2339314  -0.3960474  30.8695398 -12.6869314
   0.5739526  31.7005398 -13.5009314 -20.1740474  31.7125398   2.2210686
 -20.0210474  32.0815398   1.3520686 -20.3630474  32.4705398   2.7740686
   2.3189526  11.7175398  -7.0729314   1.9459526  11.1105398  -7.7119314
   3.1749526  11.9495398  -7.4329314 -19.8570474  35.2385398  -3.9109314
 -20.4980474  34.7645398  -4.4399314 -19.7940474  36.0995398  -4.3239314
   1.2019526  30.2965398 -15.7479314   1.8469526  30.9195398 -15.4139314
   1.5269526  30.0555398 -16.6149314   2.4129526  24.9905398 -15.7529314
   2.5199526  24.3345398 -16.4419314   1.5789526  24.7685398 -15.3379314
 -21.7020474  32.8495398   9.4930686 -22.1580474  32.0595398   9.7820686
 -20.7910474  32.5755398   9.3850686   2.7629526  29.3605398   3.7670686
   3.0279526  30.1635398   3.3190686   2.1179526  28.9615398   3.1840686
  -1.4130474  26.1475398 -10.4919314  -2.2230474  26.4355398 -10.0709314
  -1.7030474  25.6405398 -11.2499314  -1.6010474  29.7685398  -8.5759314
  -2.5380474  29.8515398  -8.3989314  -1.5540474  29.3925398  -9.4549314
  -2.9690474  34.4335398   8.8970686  -3.8550474  34.7895398   8.8340686
  -2.5280474  34.7455398   8.1070686  -0.1420474  27.7825398  -2.1039314
  -0.6090474  28.5335398  -2.4719314   0.5159526  28.1695398  -1.5259314
  -3.1970474  30.0105398 -11.8919314  -3.7920474  29.3425398 -12.2329314
  -2.3990474  29.5305398 -11.6729314   0.7939526  26.2185398  -8.9699314
   1.2429526  25.4045398  -9.1969314   0.0429526  26.2505398  -9.5629314
   4.5609526  34.3065398 -12.9759314   4.8479526  33.4035398 -12.8459314
   4.4859526  34.4005398 -13.9259314   4.2439526  33.6935398  -0.6219314
   4.3209526  33.0615398  -1.3359314   5.0329526  34.2305398  -0.6899314
  -5.8850474  31.1805398  -1.8139314  -6.0290474  30.4855398  -2.4569314
  -6.1340474  31.9845398  -2.2689314   2.6059526  10.6115398 -17.2089314
   1.7869526  11.1045398 -17.2539314   2.3689526   9.7895398 -16.7799314
   4.9279526  24.9485398 -14.5219314   4.2549526  24.9155398 -15.2019314
   5.3169526  25.8195398 -14.6109314  -4.7480474  19.9185398  -1.3519314
  -4.7970474  20.1595398  -0.4269314  -3.8820474  20.2155398  -1.6309314
 -11.1150474  12.6515398  -4.0169314 -11.8520474  12.8575398  -3.4409314
 -10.4130474  13.2325398  -3.7249314   1.7179526  38.1835398 -16.2179314
   0.7709526  38.0705398 -16.1419314   2.0719526  37.7745398 -15.4279314
   1.2449526  36.9395398 -10.8119314   2.0769526  36.4665398 -10.7969314
   0.6139526  36.3265398 -10.4349314   4.7199526  36.8135398 -11.8969314
   4.6569526  35.8615398 -11.9779314   4.6449526  36.9785398 -10.9569314
   3.8079526  31.7075398  -2.3659314   4.1369526  32.0005398  -3.2159314
   3.5309526  30.8035398  -2.5139314   5.7329526  31.8875398 -17.3509314
   6.6369526  32.1925398 -17.2829314   5.3199526  32.4945398 -17.9649314
  -4.8080474  37.8045398  -5.6339314  -4.0850474  38.4275398  -5.5659314
  -4.3890474  36.9735398  -5.8559314 -22.0270474  24.3635398   1.5130686
 -21.8900474  24.1175398   2.4280686 -22.8670474  23.9665398   1.2810686
   6.8019526  35.5055398  -1.3309314   6.6409526  35.9695398  -2.1529314
   6.3539526  36.0295398  -0.6679314 -15.7760474  32.1005398  -1.9659314
 -15.9500474  32.9125398  -2.4399314 -15.4270474  31.5045398  -2.6289314
 -18.0970474  29.0755398   0.8510686 -18.0110474  30.0035398   1.0690686
 -18.0230474  28.6235398   1.6910686   2.3929526  34.4805398  -7.7099314
   2.1419526  34.0675398  -8.5359314   1.7669526  35.1965398  -7.5999314
  -7.4490474  31.9325398 -16.4469314  -6.9660474  31.7505398 -17.2529314
  -7.5440474  31.0775398 -16.0269314  -9.3990474  36.3895398  -4.1199314
  -8.4630474  36.3205398  -3.9329314  -9.6460474  35.5205398  -4.4359314
   2.2569526  33.6295398 -17.6719314   1.3459526  33.3385398 -17.6559314
   2.4779526  33.6755398 -18.6019314  -1.7560474  35.6365398 -12.9349314
  -1.4910474  35.4095398 -13.8259314  -1.3740474  36.5005398 -12.7829314
  -5.8560474  35.3315398   8.7220686  -6.5170474  35.5795398   9.3680686
  -6.3580474  34.9645398   7.9940686  -6.8630474  13.0345398  -3.7119314
  -6.8290474  12.9805398  -2.7569314  -7.4570474  13.7645398  -3.8889314
 -20.0300474  35.9335398  -7.2159314 -20.8860474  35.5085398  -7.2679314
 -19.6420474  35.8005398  -8.0799314   5.7819526  27.6715398 -15.6209314
   6.6499526  27.2935398 -15.7659314   5.2519526  27.3385398 -16.3449314
   4.4099526  27.3605398 -17.9409314   4.9029526  27.6455398 -18.7109314
   4.4369526  26.4045398 -17.9789314 -22.7390474  34.3425398 -15.8409314
 -22.3070474  33.8005398 -16.5019314 -22.0660474  34.9635398 -15.5629314
  -1.0030474  28.7355398 -11.1969314  -1.1180474  27.7915398 -11.0939314
  -0.4980474  28.8295398 -12.0039314  -2.0890474  34.2525398  -7.9369314
  -2.3060474  34.4155398  -8.8549314  -2.1140474  35.1165398  -7.5269314
   4.4469526   9.6505398 -13.2159314   4.7209526  10.1335398 -13.9959314
   5.1039526   8.9615398 -13.1169314  -4.4170474  29.3635398  -8.1429314
  -4.6200474  28.7335398  -8.8339314  -5.0390474  30.0775398  -8.2779314
   4.6829526  37.3935398  -9.0449314   4.5419526  37.8415398  -8.2109314
   5.5919526  37.0975398  -9.0089314 -13.0120474  36.7945398  -1.9149314
 -12.3620474  36.0935398  -1.9619314 -13.8490474  36.3575398  -2.0729314
 -22.2870474  33.5555398   0.3430686 -21.3590474  33.3385398   0.4300686
 -22.3190474  34.1865398  -0.3749314 -10.6400474  24.8955398   9.2930686
  -9.9590474  25.5675398   9.3230686 -10.4560474  24.4025398   8.4930686
   6.5949526  18.0795398 -15.5439314   6.3269526  17.9115398 -16.4469314
   7.4289526  17.6195398 -15.4509314   2.0299526  37.0225398  -6.5889314
   2.7579526  36.5365398  -6.2019314   2.4399526  37.7825398  -7.0009314
   3.3509526  29.0465398  -2.9499314   3.0499526  28.2065398  -3.2959314
   4.2419526  28.8745398  -2.6449314 -21.9890474  38.4295398  -9.5349314
 -21.4910474  37.8685398 -10.1309314 -22.8320474  38.5535398  -9.9709314
 -22.7810474   8.7495398 -13.3389314 -22.7760474   8.6775398 -14.2939314
 -22.2360474   8.0215398 -13.0409314  -2.8040474  34.7845398 -10.5259314
  -2.5270474  34.8395398 -11.4399314  -3.0310474  35.6835398 -10.2889314
   0.7279526  37.6545398   7.8910686   0.9529526  37.1265398   8.6570686
   0.8049526  38.5595398   8.1930686  -5.1070474   9.9685398 -17.4679314
  -5.0920474   9.7785398 -16.5299314  -4.9140474   9.1285398 -17.8859314
  -1.6250474  29.9115398 -16.2799314  -0.7190474  30.0725398 -16.0169314
  -1.9810474  30.7815398 -16.4569314   1.9239526  26.6055398  -3.9529314
   2.2079526  25.7455398  -3.6449314   1.3529526  26.9325398  -3.2579314
   3.0299526  31.5475398  -9.3089314   2.1309526  31.3695398  -9.0339314
   2.9679526  32.3495398  -9.8279314 -15.0640474  13.1245398   9.3480686
 -14.6890474  13.2095398  10.2240686 -15.5470474  12.2985398   9.3720686
 -22.3590474  31.5035398 -11.0969314 -22.7240474  31.9085398 -11.8829314
 -23.0530474  31.5815398 -10.4419314  -3.8160474  33.7265398  -1.8519314
  -4.0650474  33.9915398  -0.9669314  -4.3910474  32.9875398  -2.0519314
   1.7789526  34.9665398   4.5060686   2.5509526  34.8785398   3.9470686
   1.1109526  34.4285398   4.0800686  -3.1210474  35.7835398   3.8100686
  -2.3710474  35.6135398   3.2400686  -3.3070474  36.7155398   3.6890686
   3.1689526  37.1265398 -14.1559314   3.6079526  37.4165398 -13.3559314
   3.6209526  36.3175398 -14.3969314  -0.9110474  36.0175398 -18.4649314
   0.0139526  36.0825398 -18.7019314  -1.1820474  35.1595398 -18.7919314
  -5.2970474  29.2155398 -16.2589314  -5.4950474  28.3645398 -16.6509314
  -5.1370474  29.7915398 -17.0059314  -3.7260474  30.8625398  -0.1099314
  -4.0340474  30.5225398   0.7300686  -4.5140474  30.9175398  -0.6499314
  -0.4570474  31.3025398   4.9040686   0.3799526  31.7675398   4.9240686
  -0.9890474  31.7925398   4.2770686   6.4229526  28.5775398  -9.8719314
   7.2289526  28.9785398 -10.1979314   5.8029526  28.6655398 -10.5959314
  -8.2960474  32.7805398   9.3850686  -9.1540474  33.2035398   9.4060686
  -7.8210474  33.2345398   8.6890686 -21.4260474  28.9835398   6.6380686
 -20.9190474  28.3545398   6.1240686 -22.0320474  29.3745398   6.0080686
   6.1899526  34.9025398   6.5030686   5.6139526  34.9565398   7.2650686
   5.6819526  34.4175398   5.8520686   4.5189526  33.0995398   5.0810686
   3.7039526  33.0115398   4.5880686   4.4579526  32.4335398   5.7660686
 -20.0670474  34.1825398   3.6660686 -19.1410474  33.9675398   3.5510686
 -20.0620474  35.0385398   4.0950686   0.9669526  30.2365398   7.6970686
   1.6529526  30.7175398   7.2350686   0.1829526  30.7755398   7.5890686
   6.9959526  36.5035398   2.3830686   6.4659526  36.8525398   3.1000686
   7.1319526  35.5835398   2.6100686  -2.0870474  28.9095398   5.0630686
  -1.4680474  29.6365398   5.1280686  -2.1000474  28.6885398   4.1310686
   1.1879526  20.7265398   9.9020686   0.7949526  21.5995398   9.8940686
   0.4509526  20.1335398  10.0520686 -19.1140474  11.1105398 -17.9469314
 -19.7510474  11.5685398 -18.4959314 -19.6410474  10.5245398 -17.4049314
   3.5479526  30.5735398   6.3420686   4.3899526  30.1565398   6.5250686
   3.2259526  30.1285398   5.5570686   1.3599526  37.6855398   5.1800686
   1.3769526  37.4195398   6.0990686   1.5599526  36.8855398   4.6950686
  -3.5130474  31.2985398   5.7550686  -3.4020474  30.5765398   5.1360686
  -2.7980474  31.1905398   6.3810686  -2.1720474  12.3725398   0.7640686
  -2.0470474  12.4225398  -0.1829314  -1.3010474  12.5235398   1.1300686
   6.1099526  37.2835398   4.8500686   6.9519526  37.6345398   5.1420686
   5.9359526  36.5525398   5.4430686   3.2479526  34.8745398 -15.5739314
   2.7569526  35.6835398 -15.4309314   2.8999526  34.5255398 -16.3939314
  -5.8700474  36.8825398   5.3350686  -5.3290474  36.9765398   6.1190686
  -5.7350474  35.9765398   5.0580686   0.7099526  33.4235398   2.5930686
  -0.0580474  33.0695398   2.1440686   1.2399526  33.8085398   1.8950686
  -1.6570474  31.9875398   1.3050686  -2.3920474  31.5525398   0.8740686
  -2.0540474  32.4635398   2.0340686 -19.7370474  38.1685398   4.3820686
 -20.0150474  37.9705398   3.4880686 -19.3010474  39.0185398   4.3160686
   1.5119526  17.8865398   0.6330686   2.3429526  18.1015398   1.0570686
   0.8439526  18.2275398   1.2280686 -20.2060474  29.6315398 -18.9479314
 -21.0470474  30.0895398 -18.9389314 -20.0200474  29.4915398 -19.8769314
  -4.3360474  35.0435398   0.4960686  -3.5130474  35.4765398   0.7220686
  -4.9750474  35.4085398   1.1070686   0.6829526  28.9165398 -13.3799314
   1.5449526  28.5175398 -13.2609314   0.7139526  29.3005398 -14.2559314
  -1.8910474  30.4265398  -2.1369314  -2.2690474  30.5315398  -1.2629314
  -1.4530474  31.2595398  -2.3109314 -17.8710474  28.7305398   3.8350686
 -17.4770474  29.2765398   4.5150686 -18.6770474  28.3985398   4.2310686
   1.6559526  36.3835398  10.1050686   2.0179526  35.5385398   9.8390686
   2.2719526  36.7135398  10.7590686  -0.5940474   9.0735398 -19.4629314
  -0.0610474   8.7965398 -18.7179314   0.0419526   9.2875398 -20.1459314
 -20.8460474  10.9125398   0.1570686 -20.8740474  11.5715398  -0.5369314
 -21.5180474  10.2765398  -0.0879314  -6.8820474  37.7305398  -0.8929314
  -7.8190474  37.6435398  -1.0699314  -6.7740474  37.3955398  -0.0029314
  -2.5240474  32.6785398   3.7210686  -2.8270474  33.5775398   3.8470686
  -3.0710474  32.1565398   4.3080686 -22.0410474  14.6875398 -18.5779314
 -21.7120474  15.1415398 -19.3539314 -21.2970474  14.6685398 -17.9769314
 -18.3470474  34.3325398   6.4910686 -19.2820474  34.4985398   6.6080686
 -18.2090474  33.4615398   6.8650686 -12.9090474  34.7035398   2.4860686
 -12.0820474  34.2325398   2.5910686 -12.6490474  35.6155398   2.3500686
  -9.7960474  37.7175398  -1.3789314  -9.4890474  37.1285398  -2.0679314
 -10.5650474  38.1455398  -1.7549314 -18.7890474  22.1455398  24.2780686
 -18.8890474  22.8945398  24.8650686 -18.2440474  21.5285398  24.7660686
  -1.6220474  13.7335398  40.4480686  -2.3690474  13.4245398  40.9610686
  -1.9900474  14.3965398  39.8640686 -15.9460474  35.7445398  14.6500686
 -16.6510474  35.1875398  14.9800686 -15.9210474  36.4835398  15.2580686
 -16.1990474  27.1805398  31.9870686 -16.5260474  27.8355398  32.6050686
 -15.2570474  27.3435398  31.9420686 -11.0250474  20.4385398  22.5980686
 -11.6200474  19.7155398  22.7970686 -10.1530474  20.0465398  22.6260686
 -17.0310474  15.4395398  19.2180686 -17.4960474  14.6425398  18.9650686
 -17.0070474  15.9665398  18.4190686 -22.2740474  22.5435398  19.0530686
 -23.0970474  22.8635398  18.6810686 -22.0010474  21.8425398  18.4620686
 -13.8460474  17.1525398  28.3430686 -14.4520474  16.7195398  28.9450686
 -13.5160474  16.4465398  27.7870686 -11.6840474  19.8185398  16.2210686
 -12.2680474  20.2685398  16.8310686 -11.2310474  19.1675398  16.7570686
 -17.2950474  22.1565398  19.4670686 -17.1450474  22.1875398  20.4120686
 -18.1560474  22.5565398  19.3470686 -20.3770474  15.6335398  39.3640686
 -19.6360474  16.0455398  39.8100686 -20.0470474  15.4305398  38.4890686
  -9.9790474  34.0225398  24.7150686  -9.0460474  33.8305398  24.6260686
 -10.3860474  33.5915398  23.9640686 -12.2250474  24.4545398  17.1820686
 -11.7760474  25.2955398  17.2660686 -13.0330474  24.5635398  17.6840686
  -4.4780474  13.3275398  35.5630686  -4.7950474  12.9845398  36.3980686
  -4.5380474  12.5865398  34.9600686 -20.5210474  29.2405398  14.3630686
 -19.7280474  29.7765398  14.3640686 -20.2370474  28.3905398  14.6990686
 -13.2550474  32.4735398  40.7030686 -13.8620474  33.0645398  40.2580686
 -12.3870474  32.8175398  40.4920686  -9.3800474  23.1485398  11.0520686
 -10.0090474  22.4475398  11.2230686  -9.8320474  23.7335398  10.4440686
  -5.9770474  30.4985398  23.8840686  -5.6320474  31.3745398  23.7150686
  -5.2470474  29.9105398  23.6900686 -18.4780474  37.2565398  36.7510686
 -18.0120474  36.5795398  36.2600686 -19.1260474  37.5975398  36.1340686
  -8.3790474  34.5195398  12.4080686  -7.7550474  34.5135398  11.6820686
  -7.9380474  34.0345398  13.1060686 -21.3210474  16.3385398  15.6550686
 -20.9970474  15.5505398  15.2200686 -20.5350474  16.7645398  15.9980686
 -18.5320474  10.1655398  27.1550686 -19.4630474  10.3025398  26.9810686
 -18.1420474  10.0415398  26.2900686  -5.9320474  22.8515398  38.9020686
  -5.0900474  22.4535398  39.1230686  -5.7690474  23.3165398  38.0810686
 -11.8910474  10.6515398  28.6630686 -12.1530474  11.5725398  28.6560686
 -11.2180474  10.5985398  29.3410686 -16.0350474  35.3965398  20.2750686
 -15.8180474  36.2795398  20.5730686 -15.8930474  35.4205398  19.3290686
 -10.6330474  17.5465398  37.4770686 -11.0340474  18.2975398  37.0410686
  -9.9240474  17.9225398  37.9990686 -14.5560474  14.8545398  14.0190686
 -13.8920474  15.3765398  13.5690686 -14.9220474  15.4475398  14.6760686
 -15.1160474  22.2405398  17.6090686 -15.7510474  21.9795398  18.2760686
 -14.5450474  21.4785398  17.5100686 -15.2610474  25.7715398  23.0190686
 -15.7770474  26.3645398  23.5660686 -15.2960474  24.9315398  23.4770686
  -1.6810474  28.9715398  25.4640686  -2.0340474  29.5085398  26.1740686
  -0.9620474  29.4915398  25.1040686 -15.7020474  16.6735398  40.3690686
 -15.5500474  17.2125398  41.1450686 -14.8450474  16.6115398  39.9480686
 -12.5000474  34.3545398  37.3120686 -12.5080474  34.7535398  36.4420686
 -13.2940474  34.6835398  37.7340686 -11.7180474  34.7675398  12.0750686
 -11.6590474  35.7175398  12.1770686 -11.2710474  34.4155398  12.8440686
 -18.2230474  12.0815398  22.8640686 -19.0760474  12.4205398  22.5900686
 -17.6790474  12.8615398  22.9710686  -9.7630474  20.7895398  37.5750686
  -9.3360474  20.5175398  36.7620686  -9.0480474  20.8745398  38.2050686
 -11.5440474  29.2875398  23.4970686 -11.5650474  30.0565398  22.9260686
 -10.6230474  29.0285398  23.5160686  -7.3390474  12.9725398  33.7250686
  -6.7870474  13.6135398  33.2770686  -7.6430474  12.3895398  33.0300686
  -8.3770474  27.9965398  18.3240686  -8.8890474  27.4315398  18.9020686
  -9.0030474  28.6505398  18.0120686 -17.9930474  22.5505398  16.5710686
 -17.6670474  21.7515398  16.9860686 -18.5140474  22.9785398  17.2500686
 -10.9680474  13.4015398  28.9480686 -10.0990474  13.7875398  28.8410686
 -11.1440474  13.4625398  29.8870686 -19.9100474  32.1915398  15.5100686
 -20.3500474  31.6015398  16.1220686 -19.1190474  31.7205398  15.2480686
 -13.5190474  14.4685398  24.0770686 -14.4420474  14.2915398  24.2580686
 -13.3650474  14.0805398  23.2160686 -16.4510474  27.5175398  24.7280686
 -17.1130474  27.4265398  25.4130686 -15.8200474  28.1415398  25.0860686
 -10.1830474  13.2125398  23.5520686  -9.3540474  12.7465398  23.4400686
 -10.5400474  12.8715398  24.3730686 -11.9910474  23.9855398  22.4180686
 -12.8390474  23.5785398  22.2420686 -12.1810474  24.9225398  22.4730686
 -11.6320474  17.1225398  19.8670686 -11.5690474  16.4135398  20.5080686
 -12.2370474  17.7495398  20.2610686 -15.5330474  37.2825398  12.1970686
 -16.2290474  36.7575398  11.8020686 -15.6230474  37.1305398  13.1380686
  -7.2200474  27.0775398  15.0660686  -7.0430474  27.0735398  14.1260686
  -6.6620474  26.3835398  15.4180686 -16.9030474   9.3505398  14.9800686
 -16.0540474   8.9415398  14.8110686 -16.7490474  10.2855398  14.8480686
 -13.4980474  17.1915398  17.0810686 -13.0090474  16.9255398  17.8600686
 -12.8910474  17.7525398  16.5980686 -11.9420474  26.8665398  26.4830686
 -11.3070474  26.3535398  25.9830686 -12.7710474  26.4035398  26.3660686
 -13.8370474  18.5515398  20.4960686 -13.6010474  18.7915398  21.3920686
 -14.7700474  18.3405398  20.5420686 -14.2470474  31.5555398  16.2440686
 -13.7460474  31.1735398  16.9650686 -13.6050474  31.6805398  15.5450686
 -20.1460474  18.7915398  26.4560686 -20.7120474  19.2635398  25.8450686
 -20.7520474  18.3385398  27.0430686 -19.1170474  14.3995398  29.0630686
 -18.3740474  13.8645398  28.7850686 -19.8680474  14.0245398  28.6020686
 -15.6450474  13.9575398  21.2870686 -16.2600474  14.5355398  20.8350686
 -15.2690474  13.4165398  20.5930686 -18.4200474  12.7855398  19.1280686
 -19.0910474  12.1475398  19.3680686 -18.1580474  12.5375398  18.2420686
   0.7689526  27.7215398  36.1400686   0.0349526  27.4165398  36.6720686
   1.1649526  28.4235398  36.6570686 -18.9140474  18.5025398  29.7530686
 -18.2040474  17.9595398  29.4090686 -18.7740474  19.3615398  29.3540686
 -12.2290474  19.7555398  10.9920686 -11.9470474  20.4355398  10.3800686
 -12.3160474  20.2095398  11.8310686 -16.7120474  37.2565398  17.9090686
 -17.2870474  37.7925398  18.4540686 -15.9710474  37.8275398  17.7060686
  -6.7470474  28.7985398  20.3580686  -7.0130474  28.5745398  19.4670686
  -7.1150474  28.1015398  20.9010686  -4.0730474  28.1595398  24.2060686
  -3.2570474  28.2785398  24.6910686  -3.8670474  28.4415398  23.3150686
 -15.5530474  23.4185398  24.6230686 -16.1690474  23.1315398  25.2970686
 -15.1980474  22.6055398  24.2620686 -21.3340474  10.3075398  22.8960686
 -21.2400474   9.8685398  22.0510686 -21.1290474  11.2245398  22.7150686
 -13.1120474  22.0335398  31.2190686 -12.9980474  21.0835398  31.2070686
 -12.6850474  22.3365398  30.4170686 -17.0320474  19.6045398  38.8700686
 -16.2250474  19.6795398  39.3780686 -17.7140474  19.4465398  39.5230686
 -10.2790474  21.6165398  24.8510686 -10.6470474  21.8085398  23.9880686
  -9.9280474  20.7295398  24.7700686 -12.7670474  17.0145398  13.4630686
 -12.1100474  17.0755398  12.7700686 -12.3160474  17.3235398  14.2490686
 -18.2030474  23.8905398  33.6450686 -18.3460474  24.3705398  32.8290686
 -17.9390474  24.5615398  34.2740686 -19.9950474  24.9255398  24.8800686
 -19.3820474  25.5755398  25.2220686 -20.6650474  24.8455398  25.5590686
  -4.6590474  19.2835398  38.1140686  -4.9700474  19.3435398  37.2110686
  -3.7110474  19.3975398  38.0500686 -17.8440474  20.6685398  28.6620686
 -17.0780474  20.1865398  28.3500686 -18.2210474  21.0565398  27.8720686
 -18.4400474  15.4615398  31.6120686 -18.5340474  15.1875398  30.6990686
 -18.4500474  16.4175398  31.5780686  -6.1110474  17.3075398  32.4300686
  -6.7840474  16.7335398  32.0640686  -5.5260474  16.7185398  32.9060686
 -18.5530474  33.1195398  23.6500686 -17.7280474  33.5515398  23.4270686
 -19.0360474  33.7705398  24.1580686 -16.8240474  23.3285398  21.9600686
 -17.4430474  23.8475398  21.4470686 -16.9140474  23.6625398  22.8530686
  -9.4690474  24.6435398  19.0210686  -9.5310474  24.4115398  18.0950686
 -10.1300474  25.3245398  19.1430686 -14.4080474  12.6085398  19.1290686
 -14.0470474  12.9245398  18.3010686 -13.9290474  11.7985398  19.3060686
 -13.6880474  38.4285398  30.0710686 -13.7890474  37.7895398  29.3660686
 -13.1370474  39.1155398  29.6950686 -17.0120474  34.6435398  26.3010686
 -17.9330474  34.8715398  26.1760686 -16.6540474  34.5975398  25.4150686
 -18.7380474  16.5105398  17.0750686 -19.3100474  16.8015398  17.7850686
 -18.5870474  17.2965398  16.5500686  -1.9790474  16.5925398  28.3700686
  -2.4200474  16.9105398  29.1580686  -1.6140474  17.3795398  27.9650686
 -19.3630474  37.6655398  24.9050686 -19.4570474  37.2015398  24.0730686
 -18.8320474  38.4335398  24.6930686 -15.2640474  24.0595398  11.0780686
 -14.7720474  23.3765398  11.5330686 -14.7600474  24.8595398  11.2280686
 -13.1380474  11.3545398  16.1580686 -12.2890474  11.2055398  16.5760686
 -13.1100474  10.8255398  15.3610686 -13.8840474  24.8695398  26.1270686
 -14.1810474  24.4805398  26.9490686 -14.5070474  24.5515398  25.4730686
   2.0349526  19.1795398  32.9510686   1.4959526  18.6105398  33.5000686
   1.4379526  19.8695398  32.6600686  -9.9180474  14.5495398  31.4220686
  -9.6430474  15.4635398  31.3510686  -9.4550474  14.2195398  32.1920686
  -8.9180474  18.4895398  39.6130686  -8.1910474  17.9295398  39.8850686
  -8.5560474  19.0245398  38.9060686  -7.9030474  15.5875398  38.5650686
  -7.6780474  15.5125398  39.4920686  -8.7600474  15.1675398  38.4910686
 -17.1680474  20.0205398  22.8030686 -17.4000474  20.2395398  23.7060686
 -16.3250474  20.4505398  22.6620686  -7.5630474  16.3325398  24.0870686
  -7.4040474  15.6125398  23.4770686  -6.6900474  16.5985398  24.3760686
  -8.9680474  36.2175398  21.7220686  -9.2980474  36.1075398  22.6140686
  -9.6970474  36.6135398  21.2440686 -21.7100474  26.2825398  39.9660686
 -21.0050474  26.5685398  40.5460686 -21.2630474  25.8405398  39.2450686
 -20.4340474  21.9035398  22.0340686 -19.9430474  21.7885398  22.8480686
 -20.5170474  22.8525398  21.9370686 -18.8290474  19.4425398  20.7080686
 -19.5520474  20.0535398  20.8450686 -18.2230474  19.6225398  21.4280686
 -20.4400474  10.7395398  20.0030686 -20.9890474  11.4775398  19.7360686
 -21.0280474   9.9845398  19.9840686 -19.8900474  24.5605398  22.1130686
 -19.9350474  24.6305398  23.0670686 -19.8010474  25.4645398  21.8100686
 -10.3360474  22.6615398  27.2580686 -10.2220474  22.2155398  26.4180686
  -9.5170474  23.1395398  27.3890686  -7.1990474  20.5335398  38.5420686
  -6.3620474  20.0735398  38.6150686  -6.9970474  21.4375398  38.7840686
 -13.4150474  24.4015398  14.3910686 -13.1440474  24.2695398  15.3000686
 -13.0040474  25.2275398  14.1360686 -14.8650474  26.7545398  27.7870686
 -15.0970474  26.0475398  28.3890686 -14.6680474  26.3115398  26.9620686
 -10.5800474  31.9095398  14.5490686 -11.3390474  31.3935398  14.2780686
  -9.8350474  31.4765398  14.1330686 -19.0540474  36.7375398  16.6270686
 -19.3770474  37.5925398  16.3420686 -18.1700474  36.9095398  16.9490686
 -20.7870474  30.6015398  28.3770686 -20.0680474  30.2795398  27.8350686
 -20.6030474  31.5335398  28.4920686 -17.1070474  24.5485398  14.8290686
 -16.3150474  24.1125398  14.5150686 -17.2920474  24.1315398  15.6710686
 -16.1750474  18.8795398  27.4290686 -15.2390474  18.6825398  27.3910686
 -16.5790474  18.0685398  27.7380686 -13.8080474  28.2005398  32.6170686
 -13.0430474  27.8665398  32.1470686 -13.5630474  29.0905398  32.8720686
 -14.0220474  28.8865398  12.1160686 -14.6270474  28.2485398  12.4940686
 -14.1380474  29.6725398  12.6500686 -14.7790474  25.7925398  20.2010686
 -14.7980474  26.7105398  19.9280686 -14.9130474  25.8215398  21.1480686
  -8.8550474  29.1765398  30.3820686  -9.7280474  28.9905398  30.7260686
  -8.7960474  28.6515398  29.5830686 -14.1280474  23.2975398  21.0290686
 -15.0110474  23.1425398  21.3660686 -14.1800474  24.1565398  20.6090686
  -8.1690474  26.8445398  39.3590686  -7.8860474  27.7195398  39.0900686
  -7.6490474  26.6535398  40.1390686  -8.1080474  23.9635398  27.3780686
  -7.9970474  24.7715398  26.8770686  -7.2370474  23.7765398  27.7280686
 -15.1820474  21.7225398  37.2850686 -15.4100474  21.2055398  38.0580686
 -14.4840474  22.3055398  37.5820686  -4.1040474  27.1155398  40.0590686
  -3.7360474  26.2335398  40.0080686  -3.4120474  27.6845398  39.7220686
  -9.2340474  20.5105398  18.8280686  -9.9520474  20.9175398  19.3140686
  -9.5190474  19.6075398  18.6910686 -18.4780474   8.4405398  19.6690686
 -17.9560474   8.7995398  20.3860686 -19.2020474   9.0585398  19.5660686
 -19.7120474  23.7575398  18.5120686 -20.3100474  23.8845398  17.7760686
 -20.1840474  23.1775398  19.1080686  -9.4180474  18.7185398  25.9380686
  -8.7920474  19.4325398  26.0580686  -8.8990474  18.0055398  25.5630686
 -16.5590474  21.0005398  31.3190686 -17.1460474  21.1065398  30.5700686
 -16.1020474  21.8385398  31.3860686 -20.7160474  10.9035398  25.5370686
 -20.9240474  10.4855398  24.7010686 -20.1510474  11.6405398  25.3020686
  -9.9570474  26.6615398  15.2280686 -10.0840474  26.9485398  16.1320686
  -9.0240474  26.7975398  15.0620686 -11.7020474  21.7015398  20.1480686
 -11.4170474  21.6565398  21.0600686 -12.4410474  22.3095398  20.1570686
 -17.6210474  25.0675398  11.7610686 -16.7120474  24.8715398  11.9900686
 -17.8150474  24.4815398  11.0300686 -16.9490474   9.7665398  21.3560686
 -16.2010474  10.3615398  21.4000686 -17.7080474  10.3205398  21.5400686
  -8.8730474  17.7725398  20.5490686  -9.8240474  17.6985398  20.4670686
  -8.5330474  16.9895398  20.1150686  -9.0690474  24.4635398  30.4320686
  -9.5270474  24.0765398  29.6860686  -8.7570474  25.3095398  30.1080686
 -16.8280474  20.2265398  13.6430686 -17.6480474  20.7195398  13.6060686
 -16.1900474  20.8485398  13.9920686 -11.0300474  20.4115398  13.6570686
 -11.3140474  20.4335398  14.5700686 -10.6260474  19.5505398  13.5510686
 -12.3070474  26.6475398  22.8350686 -13.2390474  26.4845398  22.9780686
 -12.2260474  27.6015398  22.8400686  -6.1080474  29.0375398  26.4860686
  -5.3690474  28.4435398  26.3550686  -6.1900474  29.5065398  25.6550686
 -16.5280474  12.3485398  16.7950686 -16.0860474  12.6315398  17.5950686
 -16.1330474  12.8785398  16.1020686  -5.0880474  19.1415398  35.2310686
  -5.8590474  18.6785398  34.9030686  -4.3510474  18.7255398  34.7850686
  -8.0110474  35.0395398  19.3840686  -8.0740474  35.2955398  20.3050686
  -8.0630474  34.0835398  19.3970686 -16.4780474  17.7115398  20.1850686
 -17.2560474  18.2665398  20.1280686 -16.7170474  16.9135398  19.7130686
  -8.3460474  19.8025398  23.0220686  -7.5970474  20.3925398  22.9330686
  -8.0680474  18.9955398  22.5880686 -17.0150474  27.8195398  21.0140686
 -17.6780474  28.0645398  21.6590686 -17.4870474  27.2835398  20.3770686
 -12.3770474  13.3075398  21.6020686 -12.4630474  13.9785398  20.9240686
 -11.5300474  13.4855398  22.0100686 -14.5370474  31.9345398  23.7030686
 -13.7460474  32.4045398  23.4390686 -15.2560474  32.4685398  23.3660686
 -14.9080474  22.2715398  14.8040686 -14.2260474  22.8855398  14.5330686
 -14.9840474  22.3985398  15.7500686 -14.3180474  28.4785398  22.1740686
 -15.2180474  28.1535398  22.1390686 -14.4090474  29.4255398  22.2820686
 -14.4040474  38.0205398  15.2370686 -13.6500474  38.2865398  14.7100686
 -14.2480474  38.4165398  16.0940686 -18.8720474  35.7265398  20.4700686
 -17.9370474  35.5185398  20.4720686 -18.9100474  36.6575398  20.2520686
 -13.2600474  20.3125398  18.3930686 -12.5060474  20.7485398  18.7900686
 -13.6320474  19.7845398  19.0990686  -5.0690474  19.8035398  31.5900686
  -5.3320474  18.9675398  31.9740686  -5.8860474  20.2935398  31.4970686
 -11.2650474  16.5975398  34.1240686 -10.9900474  15.9645398  34.7880686
 -10.9790474  17.4435398  34.4680686  -4.5710474  17.1065398  27.5330686
  -4.7150474  17.9215398  28.0140686  -3.6550474  16.8865398  27.7020686
 -15.0860474  18.1755398  12.4190686 -14.2110474  17.8655398  12.6510686
 -15.5400474  18.2645398  13.2570686 -15.4430474  18.0245398  37.0060686
 -15.8310474  18.6215398  37.6460686 -15.0410474  18.5985398  36.3550686
  -9.4220474  16.8305398  28.2990686 -10.3380474  16.9435398  28.5550686
  -9.1920474  17.6505398  27.8620686 -17.5180474  18.3075398  32.0610686
 -18.4220474  18.5545398  32.2550686 -17.0280474  19.1275398  32.1160686
  -7.2110474  22.1165398  32.0260686  -7.9810474  22.6825398  31.9700686
  -7.1650474  21.8645398  32.9480686 -17.5340474  14.3215398  15.0570686
 -16.9720474  15.0635398  14.8340686 -17.7830474  14.4745398  15.9690686
  -6.7110474  21.2545398  34.8440686  -5.9580474  20.8515398  35.2760686
  -7.4020474  20.5935398  34.9000686 -15.0300474  34.4985398  34.2280686
 -14.3810474  34.7005398  33.5540686 -15.8370474  34.3315398  33.7410686
  -7.9340474  23.6355398  34.4720686  -7.2790474  24.1895398  34.0470686
  -7.4230474  22.9685398  34.9300686  -5.1870474  17.4855398  25.0480686
  -4.7020474  18.3105398  25.0500686  -5.1470474  17.1815398  25.9550686
 -10.7670474  21.5205398  33.9980686 -10.1140474  21.6275398  33.3060686
 -11.0820474  22.4075398  34.1700686 -13.6100474  13.2195398  27.1960686
 -14.4320474  13.2365398  26.7060686 -13.8790474  13.1805398  28.1140686
 -12.6250474  18.3575398  23.1150686 -12.0690474  17.5855398  23.0070686
 -12.7270474  18.4485398  24.0630686 -11.3900474  19.1255398  35.1500686
 -11.1350474  19.9585398  34.7520686 -12.1560474  18.8455398  34.6490686
 -10.0780474  14.5665398  36.3730686 -10.6880474  15.2705398  36.5910686
 -10.6200474  13.9025398  35.9470686  -0.8360474  17.8575398  40.0010686
   0.0499526  17.4975398  39.9480686  -1.4100474  17.1025398  39.8760686
  -5.0730474  14.2715398  28.8690686  -4.1700474  14.0905398  28.6060686
  -5.1240474  15.2265398  28.9120686  -7.0140474  27.8775398  35.3830686
  -7.3220474  27.3085398  36.0880686  -6.0600474  27.8605398  35.4600686
 -10.6000474  26.3085398  28.9920686 -11.3100474  26.2575398  28.3520686
  -9.9500474  26.8805398  28.5840686 -19.8670474  21.3435398  36.1260686
 -19.3750474  21.1955398  35.3190686 -20.1780474  20.4745398  36.3810686
  -8.2300474  37.7095398  37.2180686  -7.5370474  38.2425398  36.8270686
  -8.5720474  38.2475398  37.9320686 -17.2360474  32.0905398  10.5990686
 -16.8150474  32.3395398  11.4220686 -16.5260474  31.7355398  10.0650686
 -19.8820474  26.7385398  11.9500686 -19.7530474  27.6865398  11.9790686
 -19.0370474  26.3895398  11.6690686 -17.2460474  16.6455398  28.7690686
 -16.6470474  16.3495398  29.4550686 -17.7210474  15.8565398  28.5090686
 -16.9990474  14.7345398  33.6930686 -17.0460474  13.7785398  33.6780686
 -17.6520474  15.0175398  33.0540686 -19.3550474  21.2525398  13.7920686
 -20.1880474  20.8845398  14.0890686 -19.4480474  22.1955398  13.9280686
 -10.8300474  10.7585398  36.1720686 -11.0150474  10.8125398  37.1090686
 -11.2350474  11.5425398  35.8010686 -19.4370474  18.0735398  37.6640686
 -19.2010474  17.1875398  37.3900686 -18.8120474  18.2855398  38.3570686
 -13.7600474  38.1595398  33.0210686 -12.9750474  38.7045398  33.0710686
 -13.7420474  37.7925398  32.1370686 -12.6200474  25.3925398  36.7530686
 -12.2970474  24.8545398  36.0290686 -12.3750474  26.2865398  36.5150686
 -17.2140474  15.0315398  38.4820686 -16.6370474  15.2545398  37.7520686
 -16.6800474  15.1775398  39.2630686 -13.8870474  18.5705398  33.9200686
 -14.5450474  19.1635398  34.2830686 -14.3730474  17.7745398  33.7040686
 -20.2740474  17.6585398  23.1720686 -20.7850474  18.2795398  23.6900686
 -20.9260474  17.0775398  22.7820686 -12.7900474  10.2335398  13.9290686
 -13.3400474  10.3045398  13.1480686 -11.9360474  10.5645398  13.6510686
  -7.3530474  34.0205398  36.8030686  -8.0880474  33.4675398  36.5390686
  -6.8200474  34.1045398  36.0120686 -15.7550474  15.6105398  36.0580686
 -16.2360474  15.4965398  35.2390686 -15.6360474  16.5565398  36.1370686
  -8.5990474  19.2905398  35.5170686  -9.4370474  19.1565398  35.0750686
  -8.3000474  18.4085398  35.7370686 -17.7530474  19.9395398  25.6350686
 -18.5170474  19.5195398  26.0290686 -17.0030474  19.4935398  26.0300686
  -6.6050474  26.3165398  29.1670686  -6.4400474  27.0045398  28.5210686
  -6.2430474  25.5245398  28.7710686 -11.4870474   9.8845398  32.8810686
 -11.1120474   9.7655398  33.7540686 -10.7370474  10.0905398  32.3230686
 -18.5360474  10.5055398  33.1090686 -17.8650474  11.0575398  33.5120686
 -19.1560474  11.1245398  32.7250686 -15.1080474  25.0145398  17.5810686
 -15.2950474  24.0845398  17.7060686 -15.0770474  25.3755398  18.4670686
 -13.3640474  23.3155398  38.5080686 -12.9410474  24.0805398  38.1170686
 -13.8500474  23.6655398  39.2550686 -21.1350474   9.0965398  39.4530686
 -20.3350474   9.5425398  39.7310686 -21.8020474   9.7835398  39.4450686
 -10.1790474  20.6845398  29.4750686 -10.6810474  19.8945398  29.2780686
 -10.2580474  21.2215398  28.6860686 -19.8710474  36.4265398  39.0870686
 -19.6440474  36.2325398  38.1770686 -20.0050474  37.3735398  39.1040686
 -14.0870474  27.7495398  39.3900686 -13.8500474  27.2355398  40.1620686
 -14.6820474  28.4215398  39.7220686 -12.0980474  12.9805398  35.2230686
 -12.9970474  13.0435398  35.5460686 -12.1880474  12.9345398  34.2710686
 -14.7510474  19.8785398  40.0340686 -13.8030474  20.0085398  40.0420686
 -14.9200474  19.2925398  40.7720686 -15.4990474  16.7175398  33.0560686
 -15.9060474  15.8595398  33.1740686 -16.0120474  17.1335398  32.3630686
 -16.9510474  10.9565398  40.1690686 -17.5070474  10.8845398  40.9440686
 -17.4350474  10.4985398  39.4820686   6.0239526   8.3755398  37.8850686
   6.3939526   9.1195398  38.3600686   6.5489526   8.3145398  37.0870686
  -4.0830474  12.0015398  32.8670686  -4.0510474  11.0875398  33.1510686
  -3.5730474  12.0185398  32.0570686  -9.8760474  22.8725398  13.7580686
  -9.4800474  23.1475398  12.9320686 -10.3080474  22.0435398  13.5530686
 -13.6900474  19.3025398  31.3180686 -14.6140474  19.4595398  31.1240686
 -13.6820474  19.0145398  32.2310686 -14.7210474  25.6235398  34.1070686
 -13.8410474  25.5385398  34.4730686 -14.9350474  26.5515398  34.2080686
 -15.6990474  16.4765398  15.9030686 -16.2680474  17.2285398  16.0680686
 -14.9410474  16.6195398  16.4690686 -18.0150474  27.3235398  17.0080686
 -17.6180474  28.1685398  17.2210686 -17.5010474  26.9965398  16.2700686
 -22.0320474  37.6035398  11.7340686 -21.7320474  38.1155398  10.9830686
 -21.8720474  36.6935398  11.4840686 -16.0010474  13.0405398  25.9880686
 -16.4830474  13.5925398  25.3730686 -16.6280474  12.8555398  26.6870686
  -7.6590474  16.7495398  35.8500686  -8.3730474  16.1165398  35.9210686
  -7.1880474  16.6745398  36.6800686 -21.2930474  18.1315398  35.7230686
 -20.5840474  18.0075398  36.3540686 -20.8570474  18.4385398  34.9290686
 -17.7950474  12.4765398  37.3900686 -18.7230474  12.6115398  37.1990686
 -17.5610474  13.2005398  37.9700686 -18.3420474  21.2315398  33.8620686
 -18.3830474  22.1775398  34.0040686 -18.0260474  21.1385398  32.9630686
  -1.3680474  10.7495398  34.8230686  -1.7150474  10.5865398  33.9460686
  -1.4670474   9.9145398  35.2800686  -8.2770474  31.6135398  20.6830686
  -8.0890474  32.0785398  19.8670686  -8.1540474  30.6895398  20.4660686
  -7.5940474  20.5255398  26.8510686  -7.9750474  21.2835398  27.2950686
  -6.7370474  20.4125398  27.2620686 -13.1940474  25.7345398  11.1610686
 -12.4290474  25.3595398  10.7250686 -12.8320474  26.2315398  11.8950686
 -13.2670474  36.2975398  35.4890686 -13.4530474  36.0475398  34.5840686
 -12.5200474  36.8925398  35.4250686 -15.6990474  20.2855398  34.9110686
 -16.5400474  20.6065398  34.5830686 -15.3500474  21.0115398  35.4270686
 -22.7430474  17.2785398  30.8880686 -23.0270474  16.4755398  31.3240686
 -22.9290474  17.9735398  31.5190686 -11.5450474  18.4005398  29.2720686
 -12.1590474  17.7425398  28.9470686 -11.6970474  18.4255398  30.2170686
  -8.5230474  29.4055398  11.5680686  -9.3930474  29.6905398  11.2890686
  -8.0610474  29.2115398  10.7530686 -12.1330474  18.4375398  25.8720686
 -11.2000474  18.6305398  25.7780686 -12.1630474  17.6595398  26.4280686
 -19.3530474  15.6615398  36.5610686 -18.5530474  15.1425398  36.6450686
 -19.4990474  15.7255398  35.6170686 -21.9190474  22.6505398  40.1560686
 -21.3710474  23.4145398  39.9740686 -21.9610474  22.6075398  41.1110686
 -11.5640474  21.6645398  39.4010686 -12.2040474  22.2115398  38.9460686
 -11.0060474  21.3175398  38.7050686  -5.9470474  25.0845398  33.1470686
  -6.1030474  26.0075398  33.3480686  -5.0470474  25.0585398  32.8230686
 -22.0350474  11.8885398  34.4770686 -22.3540474  11.0115398  34.2660686
 -21.2720474  12.0095398  33.9110686  -9.0170474  28.1905398  27.7670686
  -9.0900474  28.9955398  27.2540686  -8.2050474  27.7845398  27.4620686
 -12.3910474  15.6485398  26.4440686 -12.3660474  14.7945398  26.8760686
 -12.7690474  15.4705398  25.5830686  -6.9990474  36.1155398  31.4470686
  -7.4490474  35.4175398  30.9710686  -7.6120474  36.3695398  32.1360686
  -7.3520474  12.6595398  36.6320686  -8.0470474  13.3175398  36.6430686
  -7.1190474  12.5715398  35.7080686  -5.2730474  38.5445398  33.1680686
  -5.4820474  37.8445398  32.5500686  -5.6020474  38.2275398  34.0090686
 -13.5320474  16.5545398  38.7740686 -14.1080474  16.6475398  38.0150686
 -12.7230474  16.9965398  38.5170686 -14.9630474  15.5675398  30.2530686
 -14.9860474  14.6115398  30.2260686 -14.1230474  15.7765398  30.6630686
  -6.0110474  38.4145398  16.1950686  -6.1600474  37.6795398  16.7910686
  -6.2940474  38.0905398  15.3400686 -13.0800474  35.6995398  15.9180686
 -13.9770474  35.9175398  15.6640686 -12.5420474  36.0135398  15.1910686
  -4.4810474  37.8665398  38.8460686  -4.9670474  37.0485398  38.7430686
  -4.1800474  37.8545398  39.7550686 -21.7880474  14.5245398  20.1580686
 -22.2610474  14.7915398  19.3700686 -20.9890474  15.0515398  20.1490686
 -11.7580474  31.3775398  31.3000686 -11.7250474  30.4295398  31.4230686
 -12.3890474  31.5055398  30.5910686 -11.8230474  34.1775398  17.8420686
 -12.0160474  34.6595398  18.6450686 -12.1500474  34.7405398  17.1400686
 -20.2350474  27.2535398  21.4930686 -19.7260474  27.8005398  22.0910686
 -19.8550474  27.4235398  20.6310686  -8.9430474  24.0025398  16.3080686
  -8.7920474  23.0645398  16.1940686  -9.5270474  24.2405398  15.5880686
 -20.7420474  13.1475398  22.6070686 -21.2180474  13.4885398  21.8500686
 -21.0660474  13.6615398  23.3460686 -13.1880474  36.5405398  19.1330686
 -13.4880474  36.5325398  18.2250686 -13.7630474  37.1685398  19.5700686
 -11.1820474  28.8585398  31.7880686 -11.2890474  27.9855398  31.4110686
 -10.5680474  28.7335398  32.5130686   5.1429526  34.3605398  22.7220686
   5.3389526  35.2015398  23.1350686   4.1889526  34.3485398  22.6420686
 -17.9100474  37.9905398  28.7610686 -17.7760474  38.1395398  29.6970686
 -18.2950474  38.8065398  28.4410686 -12.4040474  28.3375398  16.6270686
 -13.0540474  27.9845398  16.0200686 -12.9150474  28.8485398  17.2550686
 -19.5830474  33.0755398  29.8850686 -18.7040474  32.6995398  29.8400686
 -19.4930474  33.9435398  29.4920686 -22.8720474  29.9485398  15.2160686
 -21.9790474  29.6255398  15.1000686 -23.4200474  29.3075398  14.7620686
  -7.1490474  34.3525398  15.2630686  -7.2690474  33.5705398  14.7230686
  -7.9900474  34.4695398  15.7060686  -8.6920474  28.7995398  23.7080686
  -8.4490474  29.6865398  23.4420686  -7.8650474  28.3895398  23.9620686
  -5.3020474  29.9425398  31.9670686  -5.7970474  30.6695398  32.3450686
  -5.7050474  29.1585398  32.3400686 -10.0670474  33.4435398  32.4200686
 -10.4220474  32.7245398  31.8970686  -9.5830474  33.9795398  31.7920686
 -18.2320474  30.9605398  27.1020686 -17.6330474  31.7065398  27.1330686
 -17.6990474  30.2145398  27.3780686 -17.1120474  29.8675398  17.2820686
 -16.4560474  30.2505398  17.8640686 -17.9280474  29.9055398  17.7810686
   7.0989526  30.4125398  40.3730686   6.4039526  30.4905398  41.0270686
   7.0339526  29.5115398  40.0590686  -5.4250474  36.1425398  18.2570686
  -6.2710474  35.7595398  18.4870686  -5.0380474  35.5195398  17.6420686
 -20.6000474  27.2575398  16.0410686 -21.2470474  27.0965398  16.7290686
 -19.7550474  27.1225398  16.4700686  -8.6040474  37.2525398  17.8890686
  -8.1540474  36.6175398  18.4450686  -8.9430474  36.7345398  17.1590686
   1.4089526  33.1865398  24.6230686   1.9869526  32.4535398  24.4150686
   1.6389526  33.8625398  23.9850686 -16.4140474  27.3745398  12.8970686
 -17.0060474  27.9895398  12.4640686 -16.9130474  26.5595398  12.9520686
 -17.0580474  35.8585398  40.4560686 -17.6540474  36.0215398  39.7240686
 -17.5480474  35.2795398  41.0400686  -6.4730474  27.5375398  31.7600686
  -6.4060474  26.8265398  31.1230686  -7.2160474  28.0605398  31.4590686
 -15.6450474  31.5595398  13.9090686 -15.3370474  32.3225398  13.4210686
 -15.2640474  31.6625398  14.7810686 -12.5340474  31.9485398  27.6350686
 -13.2820474  31.6775398  28.1670686 -12.3960474  31.2215398  27.0270686
  -7.4650474  33.5715398  24.5310686  -6.6640474  33.6815398  24.0190686
  -7.8290474  32.7385398  24.2310686 -13.7430474  13.9085398  16.2650686
 -14.0590474  14.1415398  15.3920686 -13.4910474  12.9885398  16.1920686
 -18.6370474  28.6175398  23.0860686 -19.0660474  29.4265398  23.3630686
 -17.8760474  28.5405398  23.6620686 -19.6630474  23.9545398  13.7270686
 -19.2740474  24.6125398  13.1510686 -19.1100474  23.9625398  14.5080686
 -18.7310474  26.2515398  19.4460686 -18.6790474  26.6325398  18.5700686
 -19.3180474  25.5025398  19.3480686 -11.7460474  37.8335398  24.6160686
 -10.9500474  37.4925398  25.0240686 -12.0810474  38.4765398  25.2420686
 -11.6390474  37.8945398  11.2710686 -11.7660474  37.5715398  10.3790686
 -12.1840474  38.6805398  11.3210686 -12.7460474  22.8065398  28.4500686
 -13.2040474  21.9695398  28.3700686 -11.9730474  22.7115398  27.8940686
 -16.2050474  33.3375398  17.5410686 -15.5960474  32.8545398  16.9830686
 -16.8580474  33.6895398  16.9360686 -22.1290474  26.2485398  13.5870686
 -21.5350474  26.3035398  14.3360686 -21.6040474  26.5395398  12.8420686
 -15.9970474  34.5265398  23.5340686 -16.1490474  35.4625398  23.6620686
 -15.0490474  34.4245398  23.6180686 -12.9410474  33.9755398  22.0320686
 -12.8490474  34.6745398  22.6800686 -13.3790474  34.3935398  21.2900686
 -12.0040474  30.7425398  12.4620686 -12.0390474  29.8585398  12.0960686
 -12.4760474  31.2835398  11.8290686 -22.2950474  23.2135398  12.9500686
 -22.9240474  23.9245398  13.0690686 -21.4440474  23.6135398  13.1270686
  -7.0570474  32.3535398  18.4560686  -6.9960474  32.2435398  17.5070686
  -6.1530474  32.4805398  18.7420686 -15.2320474  24.1075398  28.7440686
 -15.5290474  24.0765398  29.6530686 -14.4550474  23.5485398  28.7250686
 -18.5450474  31.0325398  21.4220686 -19.0840474  31.4825398  22.0730686
 -17.8540474  31.6595398  21.2080686 -11.2800474  31.7295398  21.7420686
 -10.9960474  31.7235398  20.8280686 -11.9600474  32.4025398  21.7780686
 -19.6020474  30.8195398  24.6910686 -19.2650474  31.5755398  24.2100686
 -19.0920474  30.8025398  25.5010686  -3.6890474  37.3725398  19.8240686
  -4.2280474  37.7605398  20.5130686  -4.3120474  37.1325398  19.1380686
 -21.9180474   8.4655398  36.2540686 -21.1330474   8.5365398  35.7110686
 -21.6680474   8.8595398  37.0900686 -22.1280474  25.1575398  26.4340686
 -22.7320474  24.7235398  27.0370686 -22.6030474  25.9325398  26.1350686
 -16.1710474  32.6485398  20.5020686 -16.0710474  33.5565398  20.7870686
 -16.0410474  32.6785398  19.5540686 -11.6010474  27.6905398  35.8570686
 -10.8700474  27.8015398  35.2490686 -11.4300474  28.3225398  36.5550686
 -19.5790474  27.8435398  28.7180686 -20.4680474  28.0365398  29.0170686
 -19.0150474  28.1475398  29.4280686 -19.8040474  30.4165398  18.6970686
 -19.4910474  31.1735398  19.1930686 -20.7580474  30.4935398  18.7180686
  -7.4730474  31.7245398  30.5260686  -6.9040474  31.5825398  29.7700686
  -7.9090474  30.8835398  30.6600686 -15.8480474  29.9205398  19.7940686
 -15.6470474  30.6825398  20.3380686 -16.3610474  29.3475398  20.3640686
 -10.4260474  34.4905398  39.7510686 -10.7510474  34.4465398  40.6500686
 -11.2090474  34.6325398  39.2190686 -10.8440474  37.3575398  20.2210686
 -11.6820474  37.0095398  19.9150686 -10.3890474  37.6235398  19.4220686
 -11.6400474  34.5655398  27.0430686 -11.0160474  34.4955398  26.3210686
 -11.6400474  33.6965398  27.4460686 -12.0440474  26.9425398  13.2810686
 -12.2380474  27.8745398  13.3860686 -11.3480474  26.7695398  13.9160686
 -19.7360474   9.0535398  15.0910686 -18.7810474   9.1205398  15.0850686
 -20.0320474   9.8785398  15.4750686 -13.4890474  29.9255398  18.4910686
 -14.0930474  29.9525398  19.2330686 -12.6990474  30.3635398  18.8090686
   5.9449526  32.3835398  20.9790686   5.2229526  31.7605398  20.8890686
   5.6359526  33.0175398  21.6260686 -13.1040474  24.3465398  32.3110686
 -14.0140474  24.6215398  32.4190686 -13.1610474  23.4375398  32.0170686
 -14.9160474  29.7925398  25.1770686 -14.0180474  29.8025398  25.5080686
 -14.9320474  30.4725398  24.5040686   2.5539526  33.6415398  19.1000686
   1.6669526  33.8895398  18.8410686   2.9909526  33.4205398  18.2770686
 -14.6690474  28.1955398  35.7800686 -14.8620474  27.6555398  36.5470686
 -13.7140474  28.1945398  35.7200686   6.9329526  35.3665398  19.4660686
   6.3269526  34.6685398  19.2130686   7.5219526  34.9545398  20.0980686
  -9.6360474  34.4915398  16.0810686  -9.8320474  34.3255398  17.0030686
 -10.3970474  34.1545398  15.6090686  -8.9420474  31.6665398  23.2680686
  -9.8490474  31.5885398  22.9700686  -8.4350474  31.7825398  22.4650686
 -14.9440474  31.6715398  35.1170686 -14.2790474  31.1715398  34.6440686
 -14.9550474  32.5255398  34.6830686   5.9089526  37.4335398  30.0650686
   6.4399526  37.2685398  30.8440686   5.0069526  37.3095398  30.3590686
 -15.7100474  10.6555398  30.3140686 -15.1580474   9.8895398  30.1570686
 -16.4610474  10.3145398  30.8010686  -6.2440474  20.7535398  11.7140686
  -6.7660474  21.5085398  11.4410686  -6.6780474  20.4355398  12.5060686
 -11.4660474  24.3345398  34.4610686 -10.8220474  24.8595398  33.9850686
 -12.1240474  24.1085398  33.8040686 -12.0140474  28.2205398  20.4540686
 -12.8060474  28.2775398  20.9880686 -11.3000474  28.4035398  21.0650686
 -16.1410474  36.9435398  24.7500686 -15.5500474  37.6765398  24.9240686
 -16.9460474  37.1685398  25.2160686 -13.1400474  31.0715398  37.1970686
 -13.6270474  31.1095398  36.3730686 -13.1770474  31.9645398  37.5390686
 -10.7970474  26.8195398  18.2540686 -11.1650474  27.0475398  19.1080686
 -11.3450474  27.2885398  17.6240686   1.7529526  28.0455398  23.0020686
   1.9949526  27.3365398  23.5970686   1.2809526  27.6115398  22.2910686
 -21.4560474  38.1815398  26.4100686 -21.4770474  39.1325398  26.5210686
 -20.6250474  38.0105398  25.9670686 -16.0770474  29.0125398  28.4070686
 -15.4590474  28.3155398  28.1880686 -16.6350474  28.6345398  29.0870686
  -4.0420474  36.0805398  13.8660686  -3.1830474  35.7985398  14.1790686
  -4.6570474  35.7475398  14.5190686 -14.5520474  12.6485398  12.3770686
 -14.4610474  13.2915398  13.0800686 -15.3730474  12.1945398  12.5710686
 -11.7080474  37.2335398  13.9860686 -11.6980474  38.0645398  14.4620686
 -11.3050474  37.4365398  13.1410686 -16.7770474  31.9765398  30.6170686
 -16.5830474  31.7595398  29.7050686 -15.9500474  32.3125398  30.9650686
 -12.6990474  36.9045398  22.4790686 -11.9020474  36.7665398  21.9670686
 -12.3870474  37.0745398  23.3680686  -5.5220474  30.8345398  37.9430686
  -5.2710474  31.3435398  38.7140686  -4.7890474  30.9415398  37.3360686
 -21.2290474  36.9205398  18.0990686 -20.5600474  36.4115398  17.6430686
 -22.0140474  36.3745398  18.0610686   3.0139526  31.2315398  23.7210686
   2.8179526  31.2145398  22.7840686   3.1719526  30.3165398  23.9510686
  -3.6000474  35.1475398  24.5490686  -3.2990474  35.3455398  25.4360686
  -3.5480474  34.1935398  24.4850686 -19.5560474  33.1795398  19.5830686
 -19.1540474  34.0155398  19.8180686 -20.3920474  33.4195398  19.1820686
 -21.4970474  35.2255398  10.9130686 -20.7210474  35.5385398  10.4480686
 -21.6750474  34.3665398  10.5310686   6.6989526  36.3385398  25.8400686
   7.1949526  35.6045398  25.4760686   7.3549526  37.0175398  25.9980686
 -21.3980474  27.5305398  24.1230686 -22.0880474  27.9155398  23.5830686
 -20.9050474  26.9735398  23.5200686 -18.9650474  35.3375398  28.6630686
 -19.1470474  35.2905398  27.7250686 -18.4570474  36.1425398  28.7680686
  -9.6300474  30.5225398  26.1290686 -10.5820474  30.4295398  26.1540686
  -9.3900474  30.2965398  25.2310686  -9.9540474  29.8365398  16.8810686
  -9.4240474  30.2765398  16.2160686 -10.5070474  29.2315398  16.3860686
 -19.4690474  14.6515398  12.4220686 -18.9070474  15.3185398  12.0270686
 -18.9340474  14.2695398  13.1180686 -15.7150474  30.9455398  38.6300686
 -16.3020474  30.8355398  37.8820686 -14.8360474  30.8705398  38.2570686
 -22.7730474  12.0295398  16.3540686 -22.9180474  11.1155398  16.1120686
 -22.8370474  12.0375398  17.3090686  -7.5700474  29.3235398  38.6510686
  -8.2020474  29.9995398  38.4090686  -6.7300474  29.6545398  38.3310686
  -3.0060474   8.7615398  36.8320686  -3.6030474   8.5235398  37.5410686
  -2.6140474   9.5875398  37.1150686   3.4659526  31.6185398  32.6640686
   2.9969526  32.3115398  32.2000686   4.3319526  31.6005398  32.2570686
 -14.2140474  13.4065398  36.7360686 -14.3440474  13.3055398  37.6790686
 -14.9430474  13.9575398  36.4500686 -17.8550474   9.4705398  38.1340686
 -17.6730474  10.2795398  37.6570686 -17.9860474   8.8135398  37.4500686
 -10.2940474  30.5195398  35.0440686 -10.1970474  30.2405398  35.9550686
  -9.7700474  29.8935398  34.5440686 -18.1620474  34.9005398  12.5980686
 -18.0790474  34.1795398  13.2220686 -18.9820474  35.3315398  12.8360686
 -13.6340474  34.9335398  25.2200686 -13.1790474  34.7275398  26.0360686
 -13.8010474  35.8755398  25.2690686   0.4619526  37.8245398  27.4880686
   0.3979526  36.8695398  27.5030686   0.0849526  38.0765398  26.6460686
  -6.6540474  31.9195398  32.9750686  -7.0050474  32.0235398  32.0910686
  -7.4140474  32.0265398  33.5490686 -15.9150474  24.4655398  31.2510686
 -16.4890474  24.2075398  31.9730686 -15.9160474  25.4225398  31.2750686
  -6.4990474  36.4015398  26.5570686  -6.1170474  36.9235398  27.2610686
  -5.9280474  36.5585398  25.8040686  -8.7680474  32.6295398  34.6010686
  -9.2790474  31.8485398  34.8110686  -9.3280474  33.1305398  34.0080686
  -9.3720474  25.4675398  32.8630686  -8.8090474  24.8575398  33.3400686
  -9.4810474  25.0685398  32.0000686  -9.4270474  27.9505398  34.0410686
  -9.3080474  27.1415398  33.5430686  -8.7140474  27.9475398  34.6790686
 -17.3920474  29.3345398  11.1510686 -18.2970474  29.3735398  10.8410686
 -17.0410474  30.2075398  10.9770686 -18.9900474  32.2035398  38.4210686
 -19.1350474  31.2675398  38.2810686 -18.3030474  32.2435398  39.0860686
   0.4309526  33.8385398  36.7860686   0.9639526  34.2555398  36.1080686
  -0.2660474  34.4695398  36.9640686  -1.8100474  35.6675398  36.7950686
  -2.1580474  35.8095398  35.9150686  -1.5600474  36.5405398  37.0980686
  -8.2120474  34.2545398  30.1600686  -8.0820474  34.2645398  29.2110686
  -8.2730474  33.3265398  30.3840686 -11.2520474  37.9585398  35.6400686
 -11.3900474  38.7465398  36.1660686 -10.3160474  37.7755398  35.7230686
 -17.2830474  34.0025398  32.5840686 -16.7750474  34.3975398  31.8750686
 -17.6430474  33.2015398  32.2040686 -14.4500474  11.0245398  35.4460686
 -14.8180474  10.2825398  35.9250686 -14.4410474  11.7395398  36.0820686
 -19.3400474  29.4435398  38.4480686 -20.2140474  29.3305398  38.0750686
 -18.7460474  29.1315398  37.7670686 -12.2730474  29.5455398  26.2650686
 -11.8590474  28.7965398  26.6930686 -12.0210474  29.4665398  25.3450686
 -15.1090474  26.0775398  37.4830686 -14.9590474  26.5635398  38.2940686
 -14.2390474  25.7835398  37.2140686  -8.2160474  36.0715398  39.9710686
  -9.1140474  35.8315398  40.1980686  -8.3070474  36.6635398  39.2240686
  -8.3080474  37.2745398  34.0270686  -7.7610474  36.8335398  34.6780686
  -8.2610474  38.2005398  34.2620686 -14.8980474  34.0835398  39.6260686
 -15.5630474  34.4685398  40.1970686 -15.3410474  33.9665398  38.7860686
  -5.6740474  34.3105398  34.7470686  -4.9180474  34.2275398  34.1660686
  -6.2660474  33.6105398  34.4720686  -6.5270474  33.4985398  27.0400686
  -6.9290474  33.4495398  26.1730686  -6.2160474  34.4005398  27.1100686
 -23.0120474  34.1625398  33.4720686 -23.1250474  33.3665398  33.9910686
 -22.0720474  34.2025398  33.2950686 -14.1770474  33.7565398  13.3010686
 -13.4570474  33.8265398  12.6750686 -14.6170474  34.6055398  13.2560686
 -17.4240474  25.4985398  35.9760686 -17.5330474  24.5915398  36.2640686
 -16.5660474  25.7555398  36.3140686 -12.9910474  12.0245398  32.3410686
 -13.7950474  11.9315398  32.8520686 -12.4010474  11.3605398  32.6970686
 -11.5720474  37.4225398  38.4150686 -12.5220474  37.4165398  38.2970686
 -11.2190474  37.2675398  37.5390686 -14.4260474  21.1275398  23.2920686
 -14.1520474  21.6815398  22.5620686 -13.6610474  20.5835398  23.4810686
 -18.0410474  30.4765398  15.0100686 -17.4260474  30.8075398  14.3550686
 -17.5220474  30.4055398  15.8120686 -21.7260474  32.3385398  12.7990686
 -21.2060474  31.8425398  12.1670686 -21.2880474  32.1925398  13.6370686
 -21.6340474  29.3915398  32.8430686 -21.3840474  28.7235398  32.2050686
 -20.9480474  30.0555398  32.7770686 -15.4970474  34.6725398  30.5740686
 -15.4850474  35.1195398  29.7280686 -14.6680474  34.9175398  30.9860686
 -12.0650474  10.6615398  38.6460686 -12.9450474  10.4625398  38.3260686
 -12.1890474  10.8805398  39.5690686 -10.7490474  29.5645398  37.6890686
 -11.5560474  30.0595398  37.5450686 -10.4710474  29.8105398  38.5710686
  -1.2640474  34.3285398  29.7650686  -1.0260474  33.9595398  28.9150686
  -1.7720474  33.6375398  30.1920686 -21.0000474  34.5135398  36.9550686
 -21.8800474  34.8515398  36.7930686 -21.1000474  33.9375398  37.7130686
   3.5909526  31.8805398  14.4070686   4.3579526  31.7665398  13.8460686
   3.2429526  32.7385398  14.1660686 -10.8030474  36.8075398  32.6690686
 -10.0470474  36.8185398  33.2560686 -10.9960474  37.7315398  32.5090686
 -16.0050474  38.1295398  34.9190686 -15.5050474  37.5955398  35.5360686
 -15.3730474  38.3705398  34.2420686 -14.0150474  30.1415398  30.3740686
 -14.6790474  30.0615398  29.6890686 -13.9240474  29.2555398  30.7250686
  -8.3750474  11.8275398  39.2540686  -8.7380474  10.9585398  39.0780686
  -7.8560474  12.0315398  38.4760686  -5.8080474  24.1955398  36.4240686
  -5.1350474  24.8755398  36.3820686  -6.6160474  24.6695398  36.6190686
  -9.8450474  10.0245398  30.5170686  -8.9450474  10.0745398  30.8400686
  -9.9700474   9.1015398  30.2970686 -14.6570474   9.7375398  38.6600686
 -15.3140474   9.8785398  39.3420686 -14.7210474   8.8035398  38.4560686
 -12.7740474  30.4845398  33.6830686 -12.6140474  30.9695398  32.8730686
 -11.9140474  30.4195398  34.0980686  -7.7780474  25.7315398  36.9130686
  -7.6690474  26.1625398  37.7610686  -8.3650474  24.9975398  37.0910686
 -15.6310474  34.8815398  36.8120686 -16.5560474  34.7555398  36.5990686
 -15.1900474  34.8965398  35.9630686  -8.4570474  29.3805398  14.2950686
  -8.5420474  29.2375398  13.3520686  -7.8870474  28.6725398  14.5940686
 -15.7700474  36.0175398  28.2010686 -16.0810474  35.7465398  27.3370686
 -16.3690474  36.7165398  28.4630686   2.1839526  11.4835398  35.9210686
   1.8499526  11.1645398  35.0830686   2.7269526  10.7675398  36.2510686
  -7.1120474  37.1935398  13.7700686  -7.2480474  36.2675398  13.5700686
  -7.7800474  37.6505398  13.2590686 -14.8770474  37.6385398  21.0540686
 -14.2980474  37.3165398  21.7440686 -15.3990474  38.3195398  21.4780686
 -14.4870474  37.0575398  38.3140686 -14.8130474  36.4735398  37.6290686
 -14.8890474  36.7305398  39.1190686  -9.7880474  23.7055398  36.8760686
  -9.9100474  22.7565398  36.8530686  -9.7070474  23.9585398  35.9560686
 -17.4080474   8.6465398  31.4140686 -17.7580474   9.2735398  32.0470686
 -17.5460474   7.7915398  31.8230686 -10.6670474  14.8165398  18.3940686
  -9.8460474  14.3895398  18.1510686 -11.3330474  14.3725398  17.8690686
 -12.1360474  14.6815398  40.4830686 -11.7890474  15.3595398  41.0620686
 -12.7560474  15.1425398  39.9170686  -0.0850474  30.3165398  40.4190686
   0.1999526  29.6315398  41.0250686   0.4879526  30.2165398  39.6590686
 -22.8490474  15.1985398  28.1000686 -22.1310474  15.8025398  28.2890686
 -23.1920474  15.4915398  27.2560686   5.3109526  31.7935398  25.3850686
   4.6539526  31.9235398  24.7020686   6.1259526  31.6355398  24.9070686
  -3.3760474  25.7105398  37.1630686  -2.6180474  25.3435398  36.7080686
  -3.3720474  25.2825398  38.0190686 -22.4470474  31.3615398  23.7750686
 -22.6970474  30.4535398  23.6050686 -21.5500474  31.3065398  24.1040686
  -8.1120474  19.7295398  31.0120686  -8.7890474  20.2025398  30.5280686
  -7.5320474  20.4155398  31.3450686  -4.4440474  32.2745398  19.7050686
  -4.0720474  33.0865398  19.3630686  -3.9950474  31.5815398  19.2210686
 -17.2940474  12.3865398  28.4790686 -16.7800474  11.8855398  29.1110686
 -17.8000474  11.7265398  28.0040686 -12.4020474  15.6055398  31.4310686
 -11.5620474  15.2635398  31.1230686 -12.2810474  15.7255398  32.3730686
 -17.4790474  17.3955398  23.8630686 -18.3650474  17.3145398  24.2150686
 -17.5030474  18.1935398  23.3340686 -21.6670474  33.8525398  21.6060686
 -21.0260474  33.2695398  21.1990686 -22.4690474  33.3325398  21.6540686
 -22.3510474  11.9075398  12.6230686 -22.0060474  12.4125398  11.8870686
 -23.2900474  11.8405398  12.4490686   2.5429526  31.4715398  16.8640686
   3.2539526  31.0625398  17.3580686   2.9159526  31.6355398  15.9980686
  -4.8930474  15.4775398  37.7360686  -5.5840474  15.0315398  38.2250686
  -4.8100474  14.9755398  36.9250686 -21.2140474  23.0335398  16.1710686
 -21.8360474  22.9835398  15.4440686 -21.1480474  22.1345398  16.4920686
  -3.0140474  16.2535398  39.7510686  -3.4540474  15.9885398  38.9430686
  -3.6360474  16.0395398  40.4450686   6.3079526  32.2365398  16.3550686
   6.4559526  32.7895398  15.5880686   6.5209526  31.3515398  16.0580686
   1.2739526  12.9005398  39.7920686   1.0099526  13.4925398  39.0880686
   0.5249526  12.8885398  40.3890686   4.1449526  28.8215398  24.0500686
   3.2959526  28.5365398  23.7130686   4.5229526  28.0355398  24.4440686
  -0.3780474  32.3835398  26.7860686   0.4099526  32.2965398  27.3220686
  -0.0510474  32.5375398  25.9000686  -4.5670474  34.2175398  16.5600686
  -4.0440474  33.4705398  16.2680686  -5.3130474  34.2365398  15.9610686
 -18.1170474  34.2835398  15.7650686 -18.5570474  35.1075398  15.9770686
 -18.8300474  33.6655398  15.6050686   0.3319526  31.6365398  21.0090686
   0.0609526  32.1955398  20.2800686  -0.3590474  30.9775398  21.0740686
   2.8279526  34.9845398  26.5170686   2.6299526  34.0895398  26.2430686
   1.9759526  35.3635398  26.7330686 -22.8790474  14.8055398  17.8060686
 -23.4570474  14.3645398  17.1820686 -22.2010474  15.2075398  17.2620686
 -17.4990474  10.1095398  24.6180686 -16.5570474  10.0165398  24.4710686
 -17.7900474  10.7155398  23.9370686  -1.9310474  19.8215398  38.6210686
  -1.4250474  19.2095398  39.1550686  -1.4380474  19.8905398  37.8030686
 -10.8690474  12.2595398  10.8260686 -11.4610474  12.9825398  10.6190686
 -10.1940474  12.3005398  10.1480686 -14.3600474  12.8695398  29.9450686
 -13.7530474  12.5665398  30.6210686 -15.0950474  12.2575398  29.9920686
   4.7639526  15.7005398  39.0100686   5.2829526  16.4745398  38.7900686
   4.6039526  15.2705398  38.1700686  -5.8640474  18.2475398  40.6120686
  -5.9770474  19.1845398  40.7670686  -5.5500474  18.1895398  39.7090686
 -18.7250474  27.7315398  26.0790686 -19.6350474  27.9295398  25.8580686
 -18.6730474  27.8635398  27.0250686 -20.2140474  12.5605398  32.3880686
 -20.6040474  12.0575398  31.6730686 -19.9100474  13.3685398  31.9730686
   6.9569526  30.9555398  34.2360686   7.6099526  30.4815398  33.7220686
   6.2129526  31.0595398  33.6420686   0.0619526  38.2415398  17.1970686
  -0.5920474  38.5785398  17.8090686   0.7339526  37.8495398  17.7560686
 -10.7700474  15.9265398  22.7390686  -9.8300474  15.9015398  22.5600686
 -10.9430474  15.1205398  23.2250686   3.0249526  29.5695398  39.4530686
   2.5199526  29.4885398  38.6450686   3.5269526  30.3775398  39.3430686
 -20.2730474  17.3975398  19.1510686 -19.8500474  17.5995398  19.9860686
 -21.1390474  17.7985398  19.2180686 -20.9430474  16.7225398  28.9440686
 -20.0920474  17.1265398  29.1120686 -21.5010474  17.0325398  29.6570686
 -16.8440474  11.9755398  13.8520686 -17.1970474  12.8395398  14.0660686
 -17.5340474  11.5565398  13.3370686  -6.0620474  38.1325398  21.1370686
  -6.5890474  37.5465398  21.6800686  -6.6310474  38.3555398  20.4010686
 -17.0230474  18.7515398  15.8810686 -17.2740474  19.3075398  16.6190686
 -17.0370474  19.3365398  15.1240686  -0.8590474  36.3185398  31.8950686
  -0.6180474  35.7835398  31.1390686  -0.5020474  37.1855398  31.6990686
   3.0949526  36.9215398  31.0940686   2.4779526  36.3395398  30.6490686
   2.7689526  37.8025398  30.9090686  -6.9580474  24.4155398  11.1920686
  -7.8400474  24.0775398  11.3450686  -6.5190474  23.7235398  10.6970686
  -2.4430474  36.0685398  27.0190686  -2.8950474  36.8785398  27.2570686
  -2.9970474  35.3715398  27.3690686  -5.7300474  32.9565398  22.1110686
  -5.7760474  32.5625398  21.2400686  -5.0330474  33.6095398  22.0430686
 -18.8110474  25.7045398  31.4210686 -19.3520474  26.1005398  30.7380686
 -18.1250474  26.3515398  31.5890686   0.1309526  34.1695398  18.2650686
  -0.6930474  34.5855398  18.0120686   0.1489526  33.3505398  17.7700686
 -21.6550474  15.2815398  24.6800686 -22.5430474  15.2085398  25.0270686
 -21.3620474  16.1515398  24.9500686 -21.7060474  26.8025398  18.6760686
 -21.1230474  26.9305398  19.4250686 -22.4960474  26.4125398  19.0500686
 -12.0590474  26.5135398  31.0810686 -11.3930474  26.3475398  30.4140686
 -12.2170474  25.6585398  31.4810686   4.2019526  36.3265398  24.8170686
   3.7199526  35.8195398  25.4700686   5.0999526  36.3515398  25.1470686
 -17.7410474  22.9895398  26.8950686 -17.0690474  22.9075398  27.5710686
 -18.4900474  23.3785398  27.3460686  -0.0630474  22.8545398  39.8030686
   0.1629526  23.7645398  39.9980686  -0.5700474  22.9025398  38.9930686
 -18.5040474  19.3405398  11.5650686 -19.2100474  19.9135398  11.8640686
 -17.7860474  19.5045398  12.1770686   1.2289526  17.4415398  34.8930686
   0.5529526  16.9005398  34.4860686   2.0109526  16.8895398  34.8930686
 -14.3960474  27.3955398  15.2110686 -14.4650474  26.4655398  15.4270686
 -15.0360474  27.5275398  14.5120686 -21.9950474  20.6685398  14.0300686
 -22.1430474  21.3305398  13.3550686 -22.6650474  20.0045398  13.8660686
  -6.6480474  14.1335398  22.3220686  -5.7540474  13.8235398  22.4620686
  -7.1830474  13.3405398  22.3430686   5.0789526  17.6835398  35.9360686
   5.6699526  17.7345398  36.6870686   4.5659526  18.4905398  35.9790686
   6.4979526  28.9355398  23.0000686   5.6059526  28.9435398  23.3470686
   6.3859526  28.9215398  22.0500686  -0.2180474  19.8405398  36.6690686
  -0.1460474  19.0265398  36.1700686   0.6739526  20.0185398  36.9680686
  -0.5670474  26.2935398  24.2450686  -0.4310474  27.0275398  24.8430686
  -1.4140474  26.4705398  23.8350686  -4.3560474  27.3965398  35.1990686
  -4.1160474  26.7705398  35.8830686  -3.5570474  27.8985398  35.0420686
 -21.9310474  20.2545398  16.9830686 -22.1040474  20.0395398  16.0660686
 -22.0720474  19.4325398  17.4530686  -3.4800474  37.4885398  11.3860686
  -2.5230474  37.4805398  11.3800686  -3.7200474  36.9685398  12.1530686
   0.1829526  13.0515398  37.1340686   0.8829526  12.6235398  36.6420686
  -0.4540474  13.3115398  36.4690686   6.4929526  29.7735398  27.3200686
   6.2089526  30.5855398  26.9000686   7.3819526  29.9585398  27.6220686
 -14.9870474   9.3995398  17.5780686 -14.5240474   9.8745398  18.2680686
 -15.2980474  10.0825398  16.9840686  -9.2040474   9.2785398  39.3110686
 -10.1010474   9.1455398  39.6160686  -8.6650474   9.1625398  40.0940686
  -3.3580474  21.9255398  39.8370686  -3.2890474  21.4035398  40.6370686
  -2.9710474  21.3745398  39.1570686   0.9039526  25.2595398  40.2310686
   0.8669526  25.8525398  40.9810686   1.7449526  25.4495398  39.8150686
 -20.3070474  24.8555398  38.1220686 -20.5410474  24.5125398  37.2600686
 -19.3750474  24.6555398  38.2150686   1.4739526  24.9215398  37.0370686
   1.5889526  25.8075398  36.6950686   1.1279526  25.0485398  37.9210686
 -21.9340474  22.3935398  37.3130686 -21.6320474  22.4805398  38.2170686
 -21.1660474  22.0855398  36.8320686   1.2029526  10.2055398  38.6320686
   1.8709526   9.9005398  38.0180686   1.4959526  11.0795398  38.8900686
 -22.2270474  12.9515398  37.0970686 -22.0880474  12.8055398  36.1620686
 -22.0330474  13.8795398  37.2270686   5.1209526  34.2405398  10.7180686
   4.7419526  34.8545398  10.0880686   5.8809526  34.7015398  11.0730686
 -19.9930474  18.7265398  33.4370686 -20.5840474  19.2945398  32.9420686
 -19.4100474  19.3305398  33.8970686  -1.7160474  13.4705398  34.9250686
  -2.5600474  13.7345398  35.2900686  -1.6540474  12.5345398  35.1150686
   3.6339526  14.0495398  36.4560686   2.9109526  13.4365398  36.3230686
   4.4129526  13.5645398  36.1830686   5.8499526  36.6545398  13.5650686
   5.9659526  35.7555398  13.8730686   6.5679526  36.7925398  12.9480686
 -20.2610474  15.5425398  33.8470686 -19.9940474  16.3545398  33.4150686
 -20.8060474  15.0945398  33.1990686  -0.4770474  32.9415398  11.3360686
  -1.2530474  32.8695398  11.8920686  -0.4040474  32.0855398  10.9140686
 -19.6750474  27.1685398  35.3080686 -20.3000474  26.4445398  35.3320686
 -18.8270474  26.7615398  35.4850686 -17.7270474  23.7155398  39.2480686
 -17.6600474  23.1165398  38.5050686 -16.8190474  23.8875398  39.4990686
  -0.7230474  15.8195398  33.7510686  -0.2770474  15.7005398  32.9130686
  -0.9250474  14.9305398  34.0440686   0.1449526  35.2925398  26.4730686
  -0.7920474  35.2905398  26.6670686   0.2679526  34.5525398  25.8780686
 -21.1960474  13.2185398  14.7440686 -21.5170474  12.8015398  13.9440686
 -21.8240474  12.9595398  15.4180686   3.8019526  37.3645398  11.7410686
   4.6219526  37.0135398  12.0880686   3.4219526  37.8535398  12.4710686
   1.3459526  32.0135398  28.8850686   1.3659526  31.2275398  29.4320686
   2.2389526  32.0945398  28.5490686   4.4989526  36.5145398  38.8750686
   3.9559526  37.0455398  39.4590686   5.1589526  37.1235398  38.5430686
 -16.7480474  30.0015398  35.8960686 -16.2870474  30.7795398  35.5830686
 -16.1090474  29.2935398  35.8100686  -5.3210474  14.4155398  32.3820686
  -4.9830474  13.5215398  32.4320686  -4.6700474  14.8905398  31.8650686
  -4.2770474  12.2635398  38.2160686  -3.4640474  11.7655398  38.1310686
  -4.3240474  12.4905398  39.1450686   6.3079526  20.1805398  36.7980686
   6.4759526  19.6245398  37.5590686   6.6659526  21.0345398  37.0410686
  -2.8420474  15.0725398  31.1940686  -2.4990474  14.2105398  30.9590686
  -2.0630474  15.6075398  31.3460686   3.2319526  20.8685398  38.1440686
   2.5229526  20.7035398  38.7650686   3.9929526  21.0585398  38.6920686
  -5.0300474  16.0955398  34.6390686  -5.1520474  15.1465398  34.6090686
  -5.8940474  16.4415398  34.8650686  -1.3460474  24.1535398  35.9370686
  -0.6680474  23.9735398  36.5880686  -1.5230474  23.3035398  35.5330686
   6.9399526  11.0645398  39.2250686   6.4019526  11.3945398  39.9440686
   6.8099526  11.6965398  38.5180686   5.7879526  13.4515398  34.4900686
   6.3189526  14.1355398  34.8990686   6.3609526  12.6855398  34.4650686
 -20.3930474  12.2615398  39.5110686 -20.5700474  13.2005398  39.5540686
 -20.9050474  11.9535398  38.7630686 -13.0200474  20.2765398  27.6960686
 -12.7090474  19.6945398  28.3890686 -12.7870474  19.8265398  26.8830686
 -20.6560474  24.4325398  35.2290686 -21.4170474  23.9395398  34.9240686
 -19.9030474  23.9225398  34.9300686  -2.7740474  24.6905398  39.4950686
  -2.9880474  23.7755398  39.3160686  -2.3330474  24.6725398  40.3450686
  -2.9070474  17.6745398  33.9260686  -2.1090474  17.1465398  33.9730686
  -3.6060474  17.0755398  34.1900686  -0.9830474  26.9295398  37.9410686
  -1.2240474  27.6885398  38.4720686  -1.7040474  26.3115398  38.0630686
  -2.2500474  29.1245398  39.0700686  -2.1030474  29.4035398  39.9730686
  -2.3450474  29.9405398  38.5780686 -22.7890474  15.6445398  35.5530686
 -21.9090474  15.7785398  35.1990686 -23.2320474  16.4825398  35.4180686
 -17.6320474  20.0265398  18.0650686 -18.0650474  19.3935398  18.6390686
 -17.3350474  20.7195398  18.6540686 -16.8580474  14.5095398  23.5070686
 -16.1480474  14.3965398  22.8750686 -16.9300474  15.4565398  23.6210686
   2.9679526  22.6895398  35.8990686   3.0099526  22.0675398  36.6260686
   2.4439526  23.4155398  36.2360686   4.0589526  34.5935398  32.6920686
   4.9809526  34.6845398  32.9360686   3.8959526  35.3225398  32.0940686
 -22.4010474  18.2365398  24.4150686 -23.0830474  18.2515398  25.0870686
 -22.6850474  17.5595398  23.8000686  -1.5590474  32.0545398  37.6720686
  -0.8580474  32.6085398  37.3280686  -2.0900474  32.6435398  38.2070686
 -19.7730474  24.3795398  27.9590686 -19.6220474  25.2065398  28.4160686
 -20.5860474  24.5185398  27.4730686 -23.0360474  17.6985398  37.9670686
 -22.4700474  17.9675398  37.2430686 -22.4570474  17.2195398  38.5600686
  -9.1680474  14.9235398  26.1560686  -8.6650474  15.3185398  25.4440686
  -9.4820474  15.6685398  26.6690686   5.2779526  20.9875398  39.8660686
   6.1279526  21.4265398  39.8620686   5.2949526  20.4385398  40.6500686
 -18.9960474  22.7865398  30.6130686 -19.5860474  23.5165398  30.7980686
 -19.0400474  22.6775398  29.6630686  -3.5570474  17.5655398  30.4820686
  -3.9400474  18.3685398  30.8350686  -3.7980474  16.8865398  31.1130686
 -17.4490474  22.7875398  36.6540686 -18.0590474  22.1525398  36.2770686
 -16.6420474  22.2925398  36.7910686 -16.7340474  12.1165398  34.3780686
 -15.8780474  11.9045398  34.7510686 -17.2830474  12.3155398  35.1360686
 -22.2590474  22.5945398  34.0420686 -23.1980474  22.4185398  34.0980686
 -21.9290474  21.9415398  33.4250686 -20.8560474  20.9755398  32.1890686
 -20.1320474  21.5195398  31.8800686 -21.5910474  21.2095398  31.6230686
 -18.2710474  16.6765398  10.8780686 -18.3600474  17.6125398  11.0570686
 -17.3300474  16.5105398  10.9330686 -19.3310474  13.7645398  25.2400686
 -18.6230474  14.2175398  24.7810686 -20.0630474  14.3815398  25.2210686
  -8.5420474  17.0655398  31.0080686  -8.4830474  18.0175398  31.0850686
  -8.5120474  16.8985398  30.0660686 -20.4760474  37.9185398  31.8390686
 -21.1430474  37.2335398  31.8210686 -20.7660474  38.5535398  31.1840686
 -21.2000474  13.0295398  27.8790686 -21.6420474  12.5835398  27.1560686
 -21.8290474  13.6875398  28.1750686 -19.1240474  11.6095398  16.0580686
 -18.1700474  11.6865398  16.0910686 -19.4070474  12.3545398  15.5280686
  -4.3940474  34.1715398  11.2340686  -4.2970474  35.0735398  11.5400686
  -3.7130474  34.0705398  10.5680686   1.6679526  34.6545398  30.2850686
   2.4019526  34.2045398  29.8660686   0.8919526  34.3135398  29.8390686
  -0.9390474  38.2015398  14.8070686  -1.4180474  39.0235398  14.9030686
  -0.6170474  38.0065398  15.6870686  -3.1320474  32.4685398  24.0770686
  -2.6320474  32.6115398  23.2730686  -2.5300474  31.9975398  24.6530686
  -2.5810474  32.5785398  13.3410686  -3.3050474  33.0675398  12.9520686
  -2.6600474  32.7405398  14.2810686 -21.8770474  34.0745398  24.4880686
 -22.7010474  33.7105398  24.8100686 -21.6790474  33.5625398  23.7040686
 -20.9760474  38.1585398  29.1590686 -20.6630474  37.2545398  29.1720686
 -21.3990474  38.2535398  28.3050686 -21.7540474  26.9315398  30.5570686
 -22.6390474  27.2515398  30.3830686 -21.8750474  26.0165398  30.8120686
 -20.8300474  36.8045398  14.0250686 -21.2620474  37.2455398  13.2940686
 -20.4430474  37.5145398  14.5380686  -5.4510474  28.0855398  17.4500686
  -6.3390474  27.7405398  17.5440686  -5.1890474  27.8345398  16.5640686
   2.5919526  33.8255398  39.3030686   3.4399526  33.3865398  39.2270686
   2.1339526  33.6035398  38.4920686  -2.9780474  32.0175398  15.9690686
  -3.4510474  31.1855398  15.9860686  -2.0640474  31.7765398  16.1200686
   0.1339526  30.0965398  24.0080686  -0.3410474  30.0805398  23.1770686
   1.0419526  29.9105398  23.7690686  -1.3840474  35.4945398  14.4510686
  -1.0770474  35.1735398  13.6030686  -1.1090474  36.4115398  14.4740686
  -0.3440474  31.6535398  16.7660686  -0.3960474  30.8695398  17.3130686
   0.5739526  31.7005398  16.4990686 -20.1740474  31.7125398  32.2210686
 -20.0210474  32.0815398  31.3520686 -20.3630474  32.4705398  32.7740686
 -19.8570474  35.2385398  26.0890686 -20.4980474  34.7645398  25.5600686
 -19.7940474  36.0995398  25.6760686 -21.7020474  32.8495398  39.4930686
 -22.1580474  32.0595398  39.7820686 -20.7910474  32.5755398  39.3850686
   2.7629526  29.3605398  33.7670686   3.0279526  30.1635398  33.3190686
   2.1179526  28.9615398  33.1840686  -1.6010474  29.7685398  21.4240686
  -2.5380474  29.8515398  21.6010686  -1.5540474  29.3925398  20.5450686
  -2.9690474  34.4335398  38.8970686  -3.8550474  34.7895398  38.8340686
  -2.5280474  34.7455398  38.1070686  -3.1970474  30.0105398  18.1080686
  -3.7920474  29.3425398  17.7670686  -2.3990474  29.5305398  18.3270686
   4.5609526  34.3065398  17.0240686   4.8479526  33.4035398  17.1540686
   4.4859526  34.4005398  16.0740686   4.2439526  33.6935398  29.3780686
   4.3209526  33.0615398  28.6640686   5.0329526  34.2305398  29.3100686
  -5.8850474  31.1805398  28.1860686  -6.0290474  30.4855398  27.5430686
  -6.1340474  31.9845398  27.7310686 -11.1150474  12.6515398  25.9830686
 -11.8520474  12.8575398  26.5590686 -10.4130474  13.2325398  26.2750686
   1.7179526  38.1835398  13.7820686   0.7709526  38.0705398  13.8580686
   2.0719526  37.7745398  14.5720686   1.2449526  36.9395398  19.1880686
   2.0769526  36.4665398  19.2030686   0.6139526  36.3265398  19.5650686
   4.7199526  36.8135398  18.1030686   4.6569526  35.8615398  18.0220686
   4.6449526  36.9785398  19.0430686   3.8079526  31.7075398  27.6340686
   4.1369526  32.0005398  26.7840686   3.5309526  30.8035398  27.4860686
  -4.8080474  37.8045398  24.3660686  -4.0850474  38.4275398  24.4340686
  -4.3890474  36.9735398  24.1440686 -22.0270474  24.3635398  31.5130686
 -21.8900474  24.1175398  32.4280686 -22.8670474  23.9665398  31.2810686
   6.8019526  35.5055398  28.6690686   6.6409526  35.9695398  27.8470686
   6.3539526  36.0295398  29.3320686 -15.7760474  32.1005398  28.0340686
 -15.9500474  32.9125398  27.5600686 -15.4270474  31.5045398  27.3710686
 -18.0970474  29.0755398  30.8510686 -18.0110474  30.0035398  31.0690686
 -18.0230474  28.6235398  31.6910686   2.3929526  34.4805398  22.2900686
   2.1419526  34.0675398  21.4640686   1.7669526  35.1965398  22.4000686
  -7.4490474  31.9325398  13.5530686  -6.9660474  31.7505398  12.7470686
  -7.5440474  31.0775398  13.9730686  -9.3990474  36.3895398  25.8800686
  -8.4630474  36.3205398  26.0670686  -9.6460474  35.5205398  25.5640686
   2.2569526  33.6295398  12.3280686   1.3459526  33.3385398  12.3440686
   2.4779526  33.6755398  11.3980686  -1.7560474  35.6365398  17.0650686
  -1.4910474  35.4095398  16.1740686  -1.3740474  36.5005398  17.2170686
  -5.8560474  35.3315398  38.7220686  -6.5170474  35.5795398  39.3680686
  -6.3580474  34.9645398  37.9940686  -6.8630474  13.0345398  26.2880686
  -6.8290474  12.9805398  27.2430686  -7.4570474  13.7645398  26.1110686
 -20.0300474  35.9335398  22.7840686 -20.8860474  35.5085398  22.7320686
 -19.6420474  35.8005398  21.9200686 -22.7390474  34.3425398  14.1590686
 -22.3070474  33.8005398  13.4980686 -22.0660474  34.9635398  14.4370686
  -2.0890474  34.2525398  22.0630686  -2.3060474  34.4155398  21.1450686
  -2.1140474  35.1165398  22.4730686  -4.4170474  29.3635398  21.8570686
  -4.6200474  28.7335398  21.1660686  -5.0390474  30.0775398  21.7220686
   4.6829526  37.3935398  20.9550686   4.5419526  37.8415398  21.7890686
   5.5919526  37.0975398  20.9910686 -13.0120474  36.7945398  28.0850686
 -12.3620474  36.0935398  28.0380686 -13.8490474  36.3575398  27.9270686
 -22.2870474  33.5555398  30.3430686 -21.3590474  33.3385398  30.4300686
 -22.3190474  34.1865398  29.6250686 -10.6400474  24.8955398  39.2930686
  -9.9590474  25.5675398  39.3230686 -10.4560474  24.4025398  38.4930686
   2.0299526  37.0225398  23.4110686   2.7579526  36.5365398  23.7980686
   2.4399526  37.7825398  22.9990686   3.3509526  29.0465398  27.0500686
   3.0499526  28.2065398  26.7040686   4.2419526  28.8745398  27.3550686
 -21.9890474  38.4295398  20.4650686 -21.4910474  37.8685398  19.8690686
 -22.8320474  38.5535398  20.0290686 -22.7810474   8.7495398  16.6610686
 -22.7760474   8.6775398  15.7060686 -22.2360474   8.0215398  16.9590686
  -2.8040474  34.7845398  19.4740686  -2.5270474  34.8395398  18.5600686
  -3.0310474  35.6835398  19.7110686   0.7279526  37.6545398  37.8910686
   0.9529526  37.1265398  38.6570686   0.8049526  38.5595398  38.1930686
   1.9239526  26.6055398  26.0470686   2.2079526  25.7455398  26.3550686
   1.3529526  26.9325398  26.7420686   3.0299526  31.5475398  20.6910686
   2.1309526  31.3695398  20.9660686   2.9679526  32.3495398  20.1720686
 -15.0640474  13.1245398  39.3480686 -14.6890474  13.2095398  40.2240686
 -15.5470474  12.2985398  39.3720686 -22.3590474  31.5035398  18.9030686
 -22.7240474  31.9085398  18.1170686 -23.0530474  31.5815398  19.5580686
  -1.8180474  11.3175398  38.2350686  -1.2810474  10.7365398  38.7740686
  -1.2040474  11.9735398  37.9040686  -3.8160474  33.7265398  28.1480686
  -4.0650474  33.9915398  29.0330686  -4.3910474  32.9875398  27.9480686
   1.7789526  34.9665398  34.5060686   2.5509526  34.8785398  33.9470686
   1.1109526  34.4285398  34.0800686  -3.1210474  35.7835398  33.8100686
  -2.3710474  35.6135398  33.2400686  -3.3070474  36.7155398  33.6890686
   3.1689526  37.1265398  15.8440686   3.6079526  37.4165398  16.6440686
   3.6209526  36.3175398  15.6030686  -0.9110474  36.0175398  11.5350686
   0.0139526  36.0825398  11.2980686  -1.1820474  35.1595398  11.2080686
   5.7929526  31.7065398  30.8260686   6.6469526  32.1075398  30.6670686
   5.1719526  32.2765398  30.3710686  -3.7260474  30.8625398  29.8900686
  -4.0340474  30.5225398  30.7300686  -4.5140474  30.9175398  29.3500686
   6.0159526  27.8255398  39.6300686   5.5839526  27.5005398  38.8400686
   6.8349526  27.3335398  39.6760686  -0.4570474  31.3025398  34.9040686
   0.3799526  31.7675398  34.9240686  -0.9890474  31.7925398  34.2770686
  -8.2960474  32.7805398  39.3850686  -9.1540474  33.2035398  39.4060686
  -7.8210474  33.2345398  38.6890686 -21.4260474  28.9835398  36.6380686
 -20.9190474  28.3545398  36.1240686 -22.0320474  29.3745398  36.0080686
   3.4909526  18.5995398  40.1870686   3.4709526  19.1505398  40.9690686
   3.3429526  19.2075398  39.4620686   6.1899526  34.9025398  36.5030686
   5.6139526  34.9565398  37.2650686   5.6819526  34.4175398  35.8520686
   4.5189526  33.0995398  35.0810686   3.7039526  33.0115398  34.5880686
   4.4579526  32.4335398  35.7660686   3.7179526  13.6395398  40.6730686
   2.8939526  13.2425398  40.3910686   3.7129526  14.5095398  40.2740686
 -20.0670474  34.1825398  33.6660686 -19.1410474  33.9675398  33.5510686
 -20.0620474  35.0385398  34.0950686   0.9669526  30.2365398  37.6970686
   1.6529526  30.7175398  37.2350686   0.1829526  30.7755398  37.5890686
   3.1539526  26.0085398  39.3880686   3.8439526  25.3785398  39.1830686
   3.5149526  26.8545398  39.1230686   6.9959526  36.5035398  32.3830686
   6.4659526  36.8525398  33.1000686   7.1319526  35.5835398  32.6100686
   4.6459526  31.7715398  38.9720686   5.2849526  32.2715398  39.4790686
   5.1489526  31.4075398  38.2440686   4.8999526  26.3885398  37.1550686
   4.4499526  26.7745398  36.4040686   4.9609526  25.4565398  36.9450686
  -2.0870474  28.9095398  35.0630686  -1.4680474  29.6365398  35.1280686
  -2.1000474  28.6885398  34.1310686   3.2069526   9.1475398  37.0560686
   2.9769526   8.5585398  36.3380686   3.9999526   8.7675398  37.4340686
   1.1879526  20.7265398  39.9020686   0.7949526  21.5995398  39.8940686
   0.4509526  20.1335398  40.0520686 -19.1140474  11.1105398  12.0530686
 -19.7510474  11.5685398  11.5040686 -19.6410474  10.5245398  12.5950686
   6.1679526  30.4805398  37.0110686   6.8829526  29.9765398  37.4000686
   6.5589526  30.8985398  36.2440686   3.5479526  30.5735398  36.3420686
   4.3899526  30.1565398  36.5250686   3.2259526  30.1285398  35.5570686
   1.3599526  37.6855398  35.1800686   1.3769526  37.4195398  36.0990686
   1.5599526  36.8855398  34.6950686  -3.5130474  31.2985398  35.7550686
  -3.4020474  30.5765398  35.1360686  -2.7980474  31.1905398  36.3810686
  -2.1720474  12.3725398  30.7640686  -2.0470474  12.4225398  29.8170686
  -1.3010474  12.5235398  31.1300686   6.1099526  37.2835398  34.8500686
   6.9519526  37.6345398  35.1420686   5.9359526  36.5525398  35.4430686
  -6.0740474   9.6805398  37.6070686  -5.4340474   9.0655398  37.9670686
  -5.7870474  10.5375398  37.9220686   3.2479526  34.8745398  14.4260686
   2.7569526  35.6835398  14.5690686   2.8999526  34.5255398  13.6060686
  -5.8700474  36.8825398  35.3350686  -5.3290474  36.9765398  36.1190686
  -5.7350474  35.9765398  35.0580686   0.7099526  33.4235398  32.5930686
  -0.0580474  33.0695398  32.1440686   1.2399526  33.8085398  31.8950686
  -1.6570474  31.9875398  31.3050686  -2.3920474  31.5525398  30.8740686
  -2.0540474  32.4635398  32.0340686 -19.7370474  38.1685398  34.3820686
 -20.0150474  37.9705398  33.4880686 -19.3010474  39.0185398  34.3160686
 -20.2060474  29.6315398  11.0520686 -21.0470474  30.0895398  11.0610686
 -20.0200474  29.4915398  10.1230686  -4.3360474  35.0435398  30.4960686
  -3.5130474  35.4765398  30.7220686  -4.9750474  35.4085398  31.1070686
   1.0479526  10.1375398  33.8790686   0.1739526  10.4165398  34.1540686
   1.0909526   9.2115398  34.1180686   5.8959526  24.5965398  39.5560686
   6.5049526  25.3255398  39.4410686   6.4569526  23.8255398  39.6390686
  -1.8910474  30.4265398  27.8630686  -2.2690474  30.5315398  28.7370686
  -1.4530474  31.2595398  27.6890686 -17.8710474  28.7305398  33.8350686
 -17.4770474  29.2765398  34.5150686 -18.6770474  28.3985398  34.2310686
   1.6559526  36.3835398  40.1050686   2.0179526  35.5385398  39.8390686
   2.2719526  36.7135398  40.7590686 -20.8460474  10.9125398  30.1570686
 -20.8740474  11.5715398  29.4630686 -21.5180474  10.2765398  29.9120686
  -6.8820474  37.7305398  29.1070686  -7.8190474  37.6435398  28.9300686
  -6.7740474  37.3955398  29.9970686  -2.5240474  32.6785398  33.7210686
  -2.8270474  33.5775398  33.8470686  -3.0710474  32.1565398  34.3080686
 -22.0410474  14.6875398  11.4220686 -21.7120474  15.1415398  10.6460686
 -21.2970474  14.6685398  12.0230686 -18.3470474  34.3325398  36.4910686
 -19.2820474  34.4985398  36.6080686 -18.2090474  33.4615398  36.8650686
 -12.9090474  34.7035398  32.4860686 -12.0820474  34.2325398  32.5910686
 -12.6490474  35.6155398  32.3500686  -9.7960474  37.7175398  28.6210686
  -9.4890474  37.1285398  27.9320686 -10.5650474  38.1455398  28.2450686
  -3.5080474  25.4745398  43.9790686  -3.6030474  24.5965398  44.3490686
  -4.2730474  25.5795398  43.4140686 -15.9460474  35.7445398  44.6500686
 -16.6510474  35.1875398  44.9800686 -15.9210474  36.4835398  45.2580686
 -17.0310474  15.4395398  49.2180686 -17.4960474  14.6425398  48.9650686
 -17.0070474  15.9665398  48.4190686 -22.2740474  22.5435398  49.0530686
 -23.0970474  22.8635398  48.6810686 -22.0010474  21.8425398  48.4620686
 -11.6840474  19.8185398  46.2210686 -12.2680474  20.2685398  46.8310686
 -11.2310474  19.1675398  46.7570686  -0.8300474  17.9745398  46.8530686
  -0.9190474  18.2085398  45.9290686  -0.1710474  18.5815398  47.1910686
   5.1269526  14.0335398  46.0660686   4.1869526  14.1535398  45.9300686
   5.3059526  13.1495398  45.7470686  -4.5470474  29.8295398  41.1980686
  -5.2010474  30.5195398  41.0840686  -4.6310474  29.2875398  40.4140686
 -12.2250474  24.4545398  47.1820686 -11.7760474  25.2955398  47.2660686
 -13.0330474  24.5635398  47.6840686 -20.5210474  29.2405398  44.3630686
 -19.7280474  29.7765398  44.3640686 -20.2370474  28.3905398  44.6990686
  -9.3800474  23.1485398  41.0520686 -10.0090474  22.4475398  41.2230686
  -9.8320474  23.7335398  40.4440686 -11.1500474  31.5885398  49.0600686
 -11.2200474  32.3525398  48.4890686 -10.8340474  30.8885398  48.4880686
  -8.3790474  34.5195398  42.4080686  -7.7550474  34.5135398  41.6820686
  -7.9380474  34.0345398  43.1060686 -21.3210474  16.3385398  45.6550686
 -20.9970474  15.5505398  45.2200686 -20.5350474  16.7645398  45.9980686
  -7.7550474   9.1505398  49.3890686  -8.1450474   9.8985398  48.9370686
  -7.8200474   8.4305398  48.7620686   5.6249526  24.0415398  48.1600686
   5.5389526  24.6195398  47.4020686   5.2779526  24.5515398  48.8920686
 -14.5560474  14.8545398  44.0190686 -13.8920474  15.3765398  43.5690686
 -14.9220474  15.4475398  44.6760686 -15.1160474  22.2405398  47.6090686
 -15.7510474  21.9795398  48.2760686 -14.5450474  21.4785398  47.5100686
  -0.4550474  12.0755398  43.1810686  -1.2280474  12.0455398  42.6170686
  -0.1120474  12.9625398  43.0700686 -11.7180474  34.7675398  42.0750686
 -11.6590474  35.7175398  42.1770686 -11.2710474  34.4155398  42.8440686
  -8.3770474  27.9965398  48.3240686  -8.8890474  27.4315398  48.9020686
  -9.0030474  28.6505398  48.0120686 -17.9930474  22.5505398  46.5710686
 -17.6670474  21.7515398  46.9860686 -18.5140474  22.9785398  47.2500686
 -19.9100474  32.1915398  45.5100686 -20.3500474  31.6015398  46.1220686
 -19.1190474  31.7205398  45.2480686 -15.5330474  37.2825398  42.1970686
 -16.2290474  36.7575398  41.8020686 -15.6230474  37.1305398  43.1380686
  -7.2200474  27.0775398  45.0660686  -7.0430474  27.0735398  44.1260686
  -6.6620474  26.3835398  45.4180686 -16.9030474   9.3505398  44.9800686
 -16.0540474   8.9415398  44.8110686 -16.7490474  10.2855398  44.8480686
 -13.4980474  17.1915398  47.0810686 -13.0090474  16.9255398  47.8600686
 -12.8910474  17.7525398  46.5980686 -14.2470474  31.5555398  46.2440686
 -13.7460474  31.1735398  46.9650686 -13.6050474  31.6805398  45.5450686
 -10.7190474  11.4975398  47.1660686 -10.3270474  11.9775398  47.8960686
 -10.0840474  10.8105398  46.9610686 -18.4200474  12.7855398  49.1280686
 -19.0910474  12.1475398  49.3680686 -18.1580474  12.5375398  48.2420686
 -10.2940474  11.2125398  43.1630686 -10.6620474  11.5825398  42.3610686
  -9.6350474  11.8495398  43.4410686  -9.3050474  18.1635398  43.6850686
  -8.8280474  17.4165398  44.0450686  -8.6890474  18.8945398  43.7480686
 -12.2290474  19.7555398  40.9920686 -11.9470474  20.4355398  40.3800686
 -12.3160474  20.2095398  41.8310686 -16.7120474  37.2565398  47.9090686
 -17.2870474  37.7925398  48.4540686 -15.9710474  37.8275398  47.7060686
  -0.7510474  20.4515398  49.2110686  -0.7070474  21.4025398  49.1190686
  -0.0920474  20.1195398  48.6010686 -12.7670474  17.0145398  43.4630686
 -12.1100474  17.0755398  42.7700686 -12.3160474  17.3235398  44.2490686
 -10.3940474  17.8625398  47.5610686  -9.9860474  17.4265398  46.8120686
 -10.2920474  17.2435398  48.2840686 -14.4080474  12.6085398  49.1290686
 -14.0470474  12.9245398  48.3010686 -13.9290474  11.7985398  49.3060686
 -15.2640474  24.0595398  41.0780686 -14.7720474  23.3765398  41.5330686
 -14.7600474  24.8595398  41.2280686 -13.1380474  11.3545398  46.1580686
 -12.2890474  11.2055398  46.5760686 -13.1100474  10.8255398  45.3610686
  -3.1340474  25.4915398  47.3100686  -3.2840474  26.2665398  46.7700686
  -3.7800474  25.5595398  48.0130686 -13.4150474  24.4015398  44.3910686
 -13.1440474  24.2695398  45.3000686 -13.0040474  25.2275398  44.1360686
 -10.5800474  31.9095398  44.5490686 -11.3390474  31.3935398  44.2780686
  -9.8350474  31.4765398  44.1330686 -19.0540474  36.7375398  46.6270686
 -19.3770474  37.5925398  46.3420686 -18.1700474  36.9095398  46.9490686
  -3.9190474  16.8175398  46.4860686  -3.0010474  16.8485398  46.7570686
  -4.0650474  15.9055398  46.2370686 -17.1070474  24.5485398  44.8290686
 -16.3150474  24.1125398  44.5150686 -17.2920474  24.1315398  45.6710686
  -7.2750474  20.1215398  44.2400686  -6.4550474  19.6445398  44.3630686
  -7.4460474  20.5295398  45.0900686 -14.0220474  28.8865398  42.1160686
 -14.6270474  28.2485398  42.4940686 -14.1380474  29.6725398  42.6500686
  -9.4660474   9.0345398  45.6420686  -8.6490474   9.0135398  46.1390686
  -9.1920474   8.9805398  44.7260686 -11.0490474  17.3415398  41.3350686
 -11.4370474  18.1725398  41.0630686 -10.1050474  17.4965398  41.3090686
  -8.1780474  13.5005398  47.2530686  -7.6220474  12.7245398  47.1840686
  -7.6420474  14.1395398  47.7230686  -3.1060474  19.4235398  49.3360686
  -2.2030474  19.7325398  49.2580686  -3.6210474  20.0595398  48.8390686
  -9.2340474  20.5105398  48.8280686  -9.9520474  20.9175398  49.3140686
  -9.5190474  19.6075398  48.6910686 -19.7120474  23.7575398  48.5120686
 -20.3100474  23.8845398  47.7760686 -20.1840474  23.1775398  49.1080686
  -9.9570474  26.6615398  45.2280686 -10.0840474  26.9485398  46.1320686
  -9.0240474  26.7975398  45.0620686 -17.6210474  25.0675398  41.7610686
 -16.7120474  24.8715398  41.9900686 -17.8150474  24.4815398  41.0300686
  -4.9460474  13.2485398  40.8510686  -5.8580474  13.5165398  40.9670686
  -4.7120474  12.8295398  41.6800686 -16.8280474  20.2265398  43.6430686
 -17.6480474  20.7195398  43.6060686 -16.1900474  20.8485398  43.9920686
 -11.0300474  20.4115398  43.6570686 -11.3140474  20.4335398  44.5700686
 -10.6260474  19.5505398  43.5510686 -16.5280474  12.3485398  46.7950686
 -16.0860474  12.6315398  47.5950686 -16.1330474  12.8785398  46.1020686
  -1.9170474  25.2875398  42.0030686  -1.5600474  26.1615398  41.8440686
  -2.5050474  25.4005398  42.7490686  -8.0110474  35.0395398  49.3840686
  -8.0740474  35.2955398  50.3050686  -8.0630474  34.0835398  49.3970686
  -4.9360474  18.6665398  44.8570686  -4.3460474  19.4105398  44.9820686
  -4.6840474  18.0435398  45.5380686 -14.9080474  22.2715398  44.8040686
 -14.2260474  22.8855398  44.5330686 -14.9840474  22.3985398  45.7500686
 -14.4040474  38.0205398  45.2370686 -13.6500474  38.2865398  44.7100686
 -14.2480474  38.4165398  46.0940686  -5.0530474  14.2675398  46.8370686
  -4.1360474  14.0825398  46.6350686  -5.5420474  13.8775398  46.1130686
 -13.2600474  20.3125398  48.3930686 -12.5060474  20.7485398  48.7900686
 -13.6320474  19.7845398  49.0990686 -15.0860474  18.1755398  42.4190686
 -14.2110474  17.8655398  42.6510686 -15.5400474  18.2645398  43.2570686
   4.2229526  21.9605398  47.0930686   3.3029526  22.1945398  46.9710686
   4.6209526  22.7445398  47.4710686 -17.5340474  14.3215398  45.0570686
 -16.9720474  15.0635398  44.8340686 -17.7830474  14.4745398  45.9690686
   0.6769526  19.7465398  43.8580686  -0.2150474  20.0925398  43.8400686
   1.2019526  20.4145398  43.4170686  -5.8510474  12.7615398  44.2110686
  -5.5870474  11.8985398  44.5300686  -6.5770474  12.5835398  43.6120686
   5.9209526  15.7425398  42.8050686   5.9599526  15.4485398  43.7150686
   6.6299526  15.2675398  42.3700686 -17.2360474  32.0905398  40.5990686
 -16.8150474  32.3395398  41.4220686 -16.5260474  31.7355398  40.0650686
 -19.8820474  26.7385398  41.9500686 -19.7530474  27.6865398  41.9790686
 -19.0370474  26.3895398  41.6690686 -19.3550474  21.2525398  43.7920686
 -20.1880474  20.8845398  44.0890686 -19.4480474  22.1955398  43.9280686
 -12.7900474  10.2335398  43.9290686 -13.3400474  10.3045398  43.1480686
 -11.9360474  10.5645398  43.6510686  -9.8760474  22.8725398  43.7580686
  -9.4800474  23.1475398  42.9320686 -10.3080474  22.0435398  43.5530686
 -15.6990474  16.4765398  45.9030686 -16.2680474  17.2285398  46.0680686
 -14.9410474  16.6195398  46.4690686  -1.8450474  18.1105398  42.5310686
  -1.3770474  17.4875398  43.0860686  -1.3650474  18.1015398  41.7020686
 -18.0150474  27.3235398  47.0080686 -17.6180474  28.1685398  47.2210686
 -17.5010474  26.9965398  46.2700686 -22.0320474  37.6035398  41.7340686
 -21.7320474  38.1155398  40.9830686 -21.8720474  36.6935398  41.4840686
 -13.1940474  25.7345398  41.1610686 -12.4290474  25.3595398  40.7250686
 -12.8320474  26.2315398  41.8950686  -8.5230474  29.4055398  41.5680686
  -9.3930474  29.6905398  41.2890686  -8.0610474  29.2115398  40.7530686
   4.0199526  20.3785398  42.3780686   4.0109526  20.9535398  43.1440686
   4.7239526  19.7545398  42.5530686  -7.0760474  11.7815398  42.0100686
  -6.5170474  11.0055398  41.9720686  -7.4210474  11.8725398  41.1220686
  -6.0110474  38.4145398  46.1950686  -6.1600474  37.6795398  46.7910686
  -6.2940474  38.0905398  45.3400686 -13.0800474  35.6995398  45.9180686
 -13.9770474  35.9175398  45.6640686 -12.5420474  36.0135398  45.1910686
 -11.8230474  34.1775398  47.8420686 -12.0160474  34.6595398  48.6450686
 -12.1500474  34.7405398  47.1400686  -8.9430474  24.0025398  46.3080686
  -8.7920474  23.0645398  46.1940686  -9.5270474  24.2405398  45.5880686
 -13.1880474  36.5405398  49.1330686 -13.4880474  36.5325398  48.2250686
 -13.7630474  37.1685398  49.5700686  -9.0500474  15.2095398  42.9870686
  -9.8420474  15.6725398  42.7110686  -9.3590474  14.5645398  43.6230686
 -12.4040474  28.3375398  46.6270686 -13.0540474  27.9845398  46.0200686
 -12.9150474  28.8485398  47.2550686  -9.8190474  13.5965398  45.1810686
  -9.2270474  13.5875398  45.9330686 -10.5120474  12.9785398  45.4140686
 -22.8720474  29.9485398  45.2160686 -21.9790474  29.6255398  45.1000686
 -23.4200474  29.3075398  44.7620686  -7.1490474  34.3525398  45.2630686
  -7.2690474  33.5705398  44.7230686  -7.9900474  34.4695398  45.7060686
  -5.4250474  36.1425398  48.2570686  -6.2710474  35.7595398  48.4870686
  -5.0380474  35.5195398  47.6420686 -20.6000474  27.2575398  46.0410686
 -21.2470474  27.0965398  46.7290686 -19.7550474  27.1225398  46.4700686
  -8.6040474  37.2525398  47.8890686  -8.1540474  36.6175398  48.4450686
  -8.9430474  36.7345398  47.1590686 -16.4140474  27.3745398  42.8970686
 -17.0060474  27.9895398  42.4640686 -16.9130474  26.5595398  42.9520686
 -15.6450474  31.5595398  43.9090686 -15.3370474  32.3225398  43.4210686
 -15.2640474  31.6625398  44.7810686 -13.7430474  13.9085398  46.2650686
 -14.0590474  14.1415398  45.3920686 -13.4910474  12.9885398  46.1920686
 -19.6630474  23.9545398  43.7270686 -19.2740474  24.6125398  43.1510686
 -19.1100474  23.9625398  44.5080686 -11.6390474  37.8945398  41.2710686
 -11.7660474  37.5715398  40.3790686 -12.1840474  38.6805398  41.3210686
 -16.2050474  33.3375398  47.5410686 -15.5960474  32.8545398  46.9830686
 -16.8580474  33.6895398  46.9360686 -22.1290474  26.2485398  43.5870686
 -21.5350474  26.3035398  44.3360686 -21.6040474  26.5395398  42.8420686
 -12.0040474  30.7425398  42.4620686 -12.0390474  29.8585398  42.0960686
 -12.4760474  31.2835398  41.8290686 -22.2950474  23.2135398  42.9500686
 -22.9240474  23.9245398  43.0690686 -21.4440474  23.6135398  43.1270686
  -2.8240474  11.5025398  41.9350686  -2.4770474  10.8185398  41.3620686
  -3.6850474  11.1785398  42.2000686 -12.0440474  26.9425398  43.2810686
 -12.2380474  27.8745398  43.3860686 -11.3480474  26.7695398  43.9160686
  -9.2660474   8.9135398  42.3640686 -10.0470474   8.6905398  41.8580686
  -9.2610474   9.8705398  42.3900686 -19.7360474   9.0535398  45.0910686
 -18.7810474   9.1205398  45.0850686 -20.0320474   9.8785398  45.4750686
 -13.4890474  29.9255398  48.4910686 -14.0930474  29.9525398  49.2330686
 -12.6990474  30.3635398  48.8090686   2.5539526  33.6415398  49.1000686
   1.6669526  33.8895398  48.8410686   2.9909526  33.4205398  48.2770686
  -9.6360474  34.4915398  46.0810686  -9.8320474  34.3255398  47.0030686
 -10.3970474  34.1545398  45.6090686  -6.2440474  20.7535398  41.7140686
  -6.7660474  21.5085398  41.4410686  -6.6780474  20.4355398  42.5060686
  -8.4090474  21.3225398  46.3890686  -8.5370474  21.1445398  47.3210686
  -9.2920474  21.3115398  46.0190686  -3.8840474  23.1685398  46.1230686
  -3.7310474  24.0115398  46.5490686  -4.0880474  22.5705398  46.8420686
 -10.7970474  26.8195398  48.2540686 -11.1650474  27.0475398  49.1080686
 -11.3450474  27.2885398  47.6240686   2.3099526  23.3365398  41.8700686
   2.4079526  22.5565398  41.3230686   1.5269526  23.7715398  41.5290686
  -4.0420474  36.0805398  43.8660686  -3.1830474  35.7985398  44.1790686
  -4.6570474  35.7475398  44.5190686 -14.5520474  12.6485398  42.3770686
 -14.4610474  13.2915398  43.0800686 -15.3730474  12.1945398  42.5710686
 -11.7080474  37.2335398  43.9860686 -11.6980474  38.0645398  44.4620686
 -11.3050474  37.4365398  43.1410686 -21.2290474  36.9205398  48.0990686
 -20.5600474  36.4115398  47.6430686 -22.0140474  36.3745398  48.0610686
 -21.4970474  35.2255398  40.9130686 -20.7210474  35.5385398  40.4480686
 -21.6750474  34.3665398  40.5310686  -0.5440474  23.1005398  49.2050686
  -1.1700474  23.1365398  49.9280686   0.2279526  23.5625398  49.5330686
  -9.9540474  29.8365398  46.8810686  -9.4240474  30.2765398  46.2160686
 -10.5070474  29.2315398  46.3860686 -19.4690474  14.6515398  42.4220686
 -18.9070474  15.3185398  42.0270686 -18.9340474  14.2695398  43.1180686
  -5.8980474  32.0685398  40.6160686  -5.4430474  32.8385398  40.9570686
  -6.7690474  32.3885398  40.3800686  -4.6510474  21.0685398  47.9530686
  -5.2030474  20.4405398  47.4870686  -5.2510474  21.5205398  48.5460686
 -22.7730474  12.0295398  46.3540686 -22.9180474  11.1155398  46.1120686
 -22.8370474  12.0375398  47.3090686 -18.1620474  34.9005398  42.5980686
 -18.0790474  34.1795398  43.2220686 -18.9820474  35.3315398  42.8360686
 -17.3920474  29.3345398  41.1510686 -18.2970474  29.3735398  40.8410686
 -17.0410474  30.2075398  40.9770686 -14.1770474  33.7565398  43.3010686
 -13.4570474  33.8265398  42.6750686 -14.6170474  34.6055398  43.2560686
 -18.0410474  30.4765398  45.0100686 -17.4260474  30.8075398  44.3550686
 -17.5220474  30.4055398  45.8120686 -21.7260474  32.3385398  42.7990686
 -21.2060474  31.8425398  42.1670686 -21.2880474  32.1925398  43.6370686
   3.5909526  31.8805398  44.4070686   4.3579526  31.7665398  43.8460686
   3.2429526  32.7385398  44.1660686  -8.4570474  29.3805398  44.2950686
  -8.5420474  29.2375398  43.3520686  -7.8870474  28.6725398  44.5940686
  -7.1120474  37.1935398  43.7700686  -7.2480474  36.2675398  43.5700686
  -7.7800474  37.6505398  43.2590686 -13.8240474   9.6465398  41.6920686
 -14.5080474   8.9765398  41.6680686 -14.2370474  10.4245398  41.3190686
  -8.2390474  16.2665398  45.8720686  -7.5470474  16.1455398  45.2220686
  -8.5100474  15.3775398  46.1010686 -10.6670474  14.8165398  48.3940686
  -9.8460474  14.3895398  48.1510686 -11.3330474  14.3725398  47.8690686
   2.0509526  23.5875398  46.9320686   1.1619526  23.8145398  46.6580686
   2.5819526  24.3405398  46.6740686  -3.5220474  20.4945398  42.2250686
  -4.4650474  20.5895398  42.0900686  -3.3490474  19.5675398  42.0580686
   4.8509526  11.2555398  44.4660686   5.3059526  10.4885398  44.1180686
   4.1309526  11.4055398  43.8540686  -7.0400474  15.4875398  41.1770686
  -7.7070474  15.3225398  41.8440686  -6.4530474  16.1275398  41.5780686
   2.5409526  15.4405398  46.0160686   1.9759526  14.6775398  45.8950686
   2.8539526  15.6495398  45.1350686  -6.2020474  15.4765398  44.4030686
  -5.7130474  15.9855398  43.7560686  -6.1250474  14.5705398  44.1030686
   6.6229526   9.1705398  43.8930686   7.2859526   9.2335398  43.2060686
   6.2329526   8.3045398  43.7710686 -22.3510474  11.9075398  42.6230686
 -22.0060474  12.4125398  41.8870686 -23.2900474  11.8405398  42.4490686
   2.5429526  31.4715398  46.8640686   3.2539526  31.0625398  47.3580686
   2.9159526  31.6355398  45.9980686  -3.0810474  20.6325398  45.3570686
  -2.6220474  20.7925398  46.1810686  -3.3550474  21.5005398  45.0620686
 -21.2140474  23.0335398  46.1710686 -21.8360474  22.9835398  45.4440686
 -21.1480474  22.1345398  46.4920686  -1.2840474  27.9575398  41.7200686
  -0.5060474  27.5535398  42.1030686  -1.5240474  28.6495398  42.3360686
   6.3079526  32.2365398  46.3550686   6.4559526  32.7895398  45.5880686
   6.5209526  31.3515398  46.0580686   2.8269526  27.6165398  48.6970686
   1.9399526  27.5985398  49.0560686   3.2769526  26.8945398  49.1340686
  -6.2560474  18.0395398  47.6170686  -6.6240474  17.5725398  46.8660686
  -5.3520474  17.7315398  47.6720686  -4.5670474  34.2175398  46.5600686
  -4.0440474  33.4705398  46.2680686  -5.3130474  34.2365398  45.9610686
 -18.1170474  34.2835398  45.7650686 -18.5570474  35.1075398  45.9770686
 -18.8300474  33.6655398  45.6050686 -22.8790474  14.8055398  47.8060686
 -23.4570474  14.3645398  47.1820686 -22.2010474  15.2075398  47.2620686
 -10.8690474  12.2595398  40.8260686 -11.4610474  12.9825398  40.6190686
 -10.1940474  12.3005398  40.1480686   0.0619526  38.2415398  47.1970686
  -0.5920474  38.5785398  47.8090686   0.7339526  37.8495398  47.7560686
   7.1219526  17.8265398  47.8640686   6.1859526  17.7245398  48.0360686
   7.2619526  17.3815398  47.0290686 -20.2730474  17.3975398  49.1510686
 -19.8500474  17.5995398  49.9860686 -21.1390474  17.7985398  49.2180686
 -16.8440474  11.9755398  43.8520686 -17.1970474  12.8395398  44.0660686
 -17.5340474  11.5565398  43.3370686  -2.7470474  11.7195398  47.6910686
  -2.1210474  11.1535398  48.1440686  -3.4810474  11.8005398  48.2990686
 -17.0230474  18.7515398  45.8810686 -17.2740474  19.3075398  46.6190686
 -17.0370474  19.3365398  45.1240686  -6.9580474  24.4155398  41.1920686
  -7.8400474  24.0775398  41.3450686  -6.5190474  23.7235398  40.6970686
  -0.7450474  16.2385398  49.1520686   0.1689526  15.9545398  49.1200686
  -0.7820474  16.9945398  48.5660686   1.4769526  19.3685398  47.7550686
   1.7849526  19.8155398  48.5430686   2.1889526  19.4765398  47.1240686
   1.5209526  16.7035398  40.6830686   2.0899526  17.3035398  40.2010686
   2.0399526  16.4395398  41.4430686  -2.4640474  14.1955398  46.4680686
  -2.2200474  13.4095398  46.9560686  -1.6290474  14.5705398  46.1850686
   0.1309526  34.1695398  48.2650686  -0.6930474  34.5855398  48.0120686
   0.1489526  33.3505398  47.7700686 -21.7060474  26.8025398  48.6760686
 -21.1230474  26.9305398  49.4250686 -22.4960474  26.4125398  49.0500686
   1.8779526  10.5855398  46.4160686   1.2739526   9.8425398  46.4290686
   2.7479526  10.1865398  46.4210686   4.8559526  22.0695398  44.3640686
   4.8289526  22.3125398  45.2890686   4.9909526  22.8975398  43.9020686
   1.5949526  12.2565398  48.8540686   1.7559526  11.5965398  48.1800686
   2.4589526  12.4335398  49.2280686   4.9819526  24.4305398  42.3310686
   4.1529526  23.9655398  42.2120686   5.3599526  24.4745398  41.4530686
 -18.5040474  19.3405398  41.5650686 -19.2100474  19.9135398  41.8640686
 -17.7860474  19.5045398  42.1770686   4.3279526  13.4405398  48.5780686
   4.4809526  14.3615398  48.7910686   4.6509526  13.3455398  47.6820686
  -6.1240474  26.8915398  42.1980686  -6.1880474  26.0005398  41.8540686
  -5.4970474  27.3265398  41.6210686 -14.3960474  27.3955398  45.2110686
 -14.4650474  26.4655398  45.4270686 -15.0360474  27.5275398  44.5120686
 -21.9950474  20.6685398  44.0300686 -22.1430474  21.3305398  43.3550686
 -22.6650474  20.0045398  43.8660686   0.1109526  16.9045398  44.0220686
   0.3049526  17.8405398  43.9670686   0.5279526  16.6205398  44.8360686
  -4.5130474  10.2375398  45.0240686  -4.7380474   9.5025398  45.5940686
  -3.5570474  10.2775398  45.0510686 -21.9310474  20.2545398  46.9830686
 -22.1040474  20.0395398  46.0660686 -22.0720474  19.4325398  47.4530686
   0.1779526  14.5155398  42.8030686   0.2079526  15.4335398  43.0720686
  -0.3330474  14.5185398  41.9940686  -3.4800474  37.4885398  41.3860686
  -2.5230474  37.4805398  41.3800686  -3.7200474  36.9685398  42.1530686
   7.0899526  11.7825398  49.2520686   6.3779526  11.1575398  49.3890686
   6.7139526  12.6305398  49.4860686 -14.9870474   9.3995398  47.5780686
 -14.5240474   9.8745398  48.2680686 -15.2980474  10.0825398  46.9840686
   3.1529526  14.6725398  43.3900686   3.8659526  14.9465398  42.8130686
   2.5659526  14.1715398  42.8240686   2.5019526  29.2855398  42.0490686
   2.5899526  29.4705398  41.1140686   3.3139526  28.8355398  42.2820686
  -1.1460474  21.8315398  42.9010686  -1.1360474  22.1775398  42.0090686
  -1.9540474  21.3205398  42.9510686   5.1209526  34.2405398  40.7180686
   4.7419526  34.8545398  40.0880686   5.8809526  34.7015398  41.0730686
   5.8499526  36.6545398  43.5650686   5.9659526  35.7555398  43.8730686
   6.5679526  36.7925398  42.9480686  -0.4770474  32.9415398  41.3360686
  -1.2530474  32.8695398  41.8920686  -0.4040474  32.0855398  40.9140686
  -3.3530474  27.7295398  45.3090686  -3.0820474  26.9715398  44.7920686
  -3.3380474  28.4595398  44.6900686   4.0299526  19.0415398  46.0650686
   4.3869526  19.9065398  46.2630686   4.6329526  18.6755398  45.4170686
 -21.1960474  13.2185398  44.7440686 -21.5170474  12.8015398  43.9440686
 -21.8240474  12.9595398  45.4180686   3.8019526  37.3645398  41.7410686
   4.6219526  37.0135398  42.0880686   3.4219526  37.8535398  42.4710686
   1.2659526  26.9795398  42.2830686   1.6239526  27.8445398  42.0820686
   1.9179526  26.5775398  42.8580686   4.9789526  11.4095398  41.3060686
   4.2289526  10.8365398  41.4670686   4.6609526  12.2865398  41.5170686
   1.0909526  13.1775398  45.5880686   0.9749526  12.9935398  44.6560686
   1.3379526  12.3355398  45.9700686 -17.6320474  20.0265398  48.0650686
 -18.0650474  19.3935398  48.6390686 -17.3350474  20.7195398  48.6540686
   4.5639526  16.7665398  47.8940686   4.1689526  17.5265398  47.4660686
   4.5429526  16.0795398  47.2280686 -18.2710474  16.6765398  40.8780686
 -18.3600474  17.6125398  41.0570686 -17.3300474  16.5105398  40.9330686
 -19.1240474  11.6095398  46.0580686 -18.1700474  11.6865398  46.0910686
 -19.4070474  12.3545398  45.5280686  -4.3940474  34.1715398  41.2340686
  -4.2970474  35.0735398  41.5400686  -3.7130474  34.0705398  40.5680686
  -0.3630474  24.0475398  44.8050686  -1.0210474  24.5585398  44.3330686
  -0.4200474  23.1715398  44.4240686  -0.9390474  38.2015398  44.8070686
  -1.4180474  39.0235398  44.9030686  -0.6170474  38.0065398  45.6870686
  -6.6730474  11.0635398  47.5530686  -6.4120474  10.1875398  47.2700686
  -5.8530474  11.4905398  47.7990686  -2.5810474  32.5785398  43.3410686
  -3.3050474  33.0675398  42.9520686  -2.6600474  32.7405398  44.2810686
   4.2389526  29.8855398  48.6430686   4.1069526  30.4695398  49.3900686
   3.4559526  29.3355398  48.6260686  -1.7960474  10.5815398  45.2560686
  -1.7990474  11.1305398  46.0410686  -1.3490474  11.1105398  44.5950686
 -20.8300474  36.8045398  44.0250686 -21.2620474  37.2455398  43.2940686
 -20.4430474  37.5145398  44.5380686  -5.4510474  28.0855398  47.4500686
  -6.3390474  27.7405398  47.5440686  -5.1890474  27.8345398  46.5640686
  -2.9780474  32.0175398  45.9690686  -3.4510474  31.1855398  45.9860686
  -2.0640474  31.7765398  46.1200686  -1.3840474  35.4945398  44.4510686
  -1.0770474  35.1735398  43.6030686  -1.1090474  36.4115398  44.4740686
  -0.3440474  31.6535398  46.7660686  -0.3960474  30.8695398  47.3130686
   0.5739526  31.7005398  46.4990686   1.2019526  30.2965398  44.2520686
   1.8469526  30.9195398  44.5860686   1.5269526  30.0555398  43.3850686
   2.4129526  24.9905398  44.2470686   2.5199526  24.3345398  43.5580686
   1.5789526  24.7685398  44.6620686  -3.1970474  30.0105398  48.1080686
  -3.7920474  29.3425398  47.7670686  -2.3990474  29.5305398  48.3270686
   4.5609526  34.3065398  47.0240686   4.8479526  33.4035398  47.1540686
   4.4859526  34.4005398  46.0740686   2.6059526  10.6115398  42.7910686
   1.7869526  11.1045398  42.7460686   2.3689526   9.7895398  43.2200686
   4.9279526  24.9485398  45.4780686   4.2549526  24.9155398  44.7980686
   5.3169526  25.8195398  45.3890686   1.7179526  38.1835398  43.7820686
   0.7709526  38.0705398  43.8580686   2.0719526  37.7745398  44.5720686
   1.2449526  36.9395398  49.1880686   2.0769526  36.4665398  49.2030686
   0.6139526  36.3265398  49.5650686   4.7199526  36.8135398  48.1030686
   4.6569526  35.8615398  48.0220686   4.6449526  36.9785398  49.0430686
   5.7329526  31.8875398  42.6490686   6.6369526  32.1925398  42.7170686
   5.3199526  32.4945398  42.0350686  -7.4490474  31.9325398  43.5530686
  -6.9660474  31.7505398  42.7470686  -7.5440474  31.0775398  43.9730686
   2.2569526  33.6295398  42.3280686   1.3459526  33.3385398  42.3440686
   2.4779526  33.6755398  41.3980686  -1.7560474  35.6365398  47.0650686
  -1.4910474  35.4095398  46.1740686  -1.3740474  36.5005398  47.2170686
   5.7819526  27.6715398  44.3790686   6.6499526  27.2935398  44.2340686
   5.2519526  27.3385398  43.6550686   4.4099526  27.3605398  42.0590686
   4.9029526  27.6455398  41.2890686   4.4369526  26.4045398  42.0210686
 -22.7390474  34.3425398  44.1590686 -22.3070474  33.8005398  43.4980686
 -22.0660474  34.9635398  44.4370686  -1.0030474  28.7355398  48.8030686
  -1.1180474  27.7915398  48.9060686  -0.4980474  28.8295398  47.9960686
   4.4469526   9.6505398  46.7840686   4.7209526  10.1335398  46.0040686
   5.1039526   8.9615398  46.8830686   6.5949526  18.0795398  44.4560686
   6.3269526  17.9115398  43.5530686   7.4289526  17.6195398  44.5490686
 -22.7810474   8.7495398  46.6610686 -22.7760474   8.6775398  45.7060686
 -22.2360474   8.0215398  46.9590686  -5.1070474   9.9685398  42.5320686
  -5.0920474   9.7785398  43.4700686  -4.9140474   9.1285398  42.1140686
  -1.6250474  29.9115398  43.7200686  -0.7190474  30.0725398  43.9830686
  -1.9810474  30.7815398  43.5430686 -22.3590474  31.5035398  48.9030686
 -22.7240474  31.9085398  48.1170686 -23.0530474  31.5815398  49.5580686
   3.1689526  37.1265398  45.8440686   3.6079526  37.4165398  46.6440686
   3.6209526  36.3175398  45.6030686  -0.9110474  36.0175398  41.5350686
   0.0139526  36.0825398  41.2980686  -1.1820474  35.1595398  41.2080686
  -5.2970474  29.2155398  43.7410686  -5.4950474  28.3645398  43.3490686
  -5.1370474  29.7915398  42.9940686 -19.1140474  11.1105398  42.0530686
 -19.7510474  11.5685398  41.5040686 -19.6410474  10.5245398  42.5950686
   3.2479526  34.8745398  44.4260686   2.7569526  35.6835398  44.5690686
   2.8999526  34.5255398  43.6060686 -20.2060474  29.6315398  41.0520686
 -21.0470474  30.0895398  41.0610686 -20.0200474  29.4915398  40.1230686
   0.6829526  28.9165398  46.6200686   1.5449526  28.5175398  46.7390686
   0.7139526  29.3005398  45.7440686  -0.5940474   9.0735398  40.5370686
  -0.0610474   8.7965398  41.2820686   0.0419526   9.2875398  39.8540686
 -22.0410474  14.6875398  41.4220686 -21.7120474  15.1415398  40.6460686
 -21.2970474  14.6685398  42.0230686  -1.6220474  43.7335398  10.4480686
  -2.3690474  43.4245398  10.9610686  -1.9900474  44.3965398   9.8640686
  -1.7850474  39.6195398   2.2520686  -1.9450474  38.7705398   1.8400686
  -1.2750474  40.1085398   1.6060686 -17.0310474  45.4395398 -10.7819314
 -17.4960474  44.6425398 -11.0349314 -17.0070474  45.9665398 -11.5809314
 -13.8460474  47.1525398  -1.6569314 -14.4520474  46.7195398  -1.0549314
 -13.5160474  46.4465398  -2.2129314 -20.3770474  45.6335398   9.3640686
 -19.6360474  46.0455398   9.8100686 -20.0470474  45.4305398   8.4890686
   5.1269526  44.0335398 -13.9339314   4.1869526  44.1535398 -14.0699314
   5.3059526  43.1495398 -14.2529314  -4.4780474  43.3275398   5.5630686
  -4.7950474  42.9845398   6.3980686  -4.5380474  42.5865398   4.9600686
 -21.3210474  46.3385398 -14.3449314 -20.9970474  45.5505398 -14.7799314
 -20.5350474  46.7645398 -14.0019314 -18.5320474  40.1655398  -2.8449314
 -19.4630474  40.3025398  -3.0189314 -18.1420474  40.0415398  -3.7099314
 -11.8910474  40.6515398  -1.3369314 -12.1530474  41.5725398  -1.3439314
 -11.2180474  40.5985398  -0.6589314  -7.7550474  39.1505398 -10.6109314
  -8.1450474  39.8985398 -11.0629314  -7.8200474  38.4305398 -11.2379314
 -14.5560474  44.8545398 -15.9809314 -13.8920474  45.3765398 -16.4309314
 -14.9220474  45.4475398 -15.3239314 -13.8240474  41.2775398  -7.1819314
 -13.6440474  41.7335398  -8.0039314 -13.1370474  41.5765398  -6.5849314
  -0.4550474  42.0755398 -16.8189314  -1.2280474  42.0455398 -17.3829314
  -0.1120474  42.9625398 -16.9299314 -15.7020474  46.6735398  10.3690686
 -15.5500474  47.2125398  11.1450686 -14.8450474  46.6115398   9.9480686
 -18.2230474  42.0815398  -7.1359314 -19.0760474  42.4205398  -7.4099314
 -17.6790474  42.8615398  -7.0289314  -7.3390474  42.9725398   3.7250686
  -6.7870474  43.6135398   3.2770686  -7.6430474  42.3895398   3.0300686
 -10.9680474  43.4015398  -1.0519314 -10.0990474  43.7875398  -1.1589314
 -11.1440474  43.4625398  -0.1129314 -13.5190474  44.4685398  -5.9229314
 -14.4420474  44.2915398  -5.7419314 -13.3650474  44.0805398  -6.7839314
 -10.1830474  43.2125398  -6.4479314  -9.3540474  42.7465398  -6.5599314
 -10.5400474  42.8715398  -5.6269314 -11.6320474  47.1225398 -10.1329314
 -11.5690474  46.4135398  -9.4919314 -12.2370474  47.7495398  -9.7389314
 -16.9030474  39.3505398 -15.0199314 -16.0540474  38.9415398 -15.1889314
 -16.7490474  40.2855398 -15.1519314 -13.4980474  47.1915398 -12.9189314
 -13.0090474  46.9255398 -12.1399314 -12.8910474  47.7525398 -13.4019314
 -10.7190474  41.4975398 -12.8339314 -10.3270474  41.9775398 -12.1039314
 -10.0840474  40.8105398 -13.0389314 -19.1170474  44.3995398  -0.9369314
 -18.3740474  43.8645398  -1.2149314 -19.8680474  44.0245398  -1.3979314
 -15.6450474  43.9575398  -8.7129314 -16.2600474  44.5355398  -9.1649314
 -15.2690474  43.4165398  -9.4069314 -18.4200474  42.7855398 -10.8719314
 -19.0910474  42.1475398 -10.6319314 -18.1580474  42.5375398 -11.7579314
 -10.2940474  41.2125398 -16.8369314 -10.6620474  41.5825398 -17.6389314
  -9.6350474  41.8495398 -16.5589314  -7.2710474  45.0825398 -10.4959314
  -7.2900474  45.0825398  -9.5389314  -6.3690474  45.3165398 -10.7169314
 -21.3340474  40.3075398  -7.1039314 -21.2400474  39.8685398  -7.9489314
 -21.1290474  41.2245398  -7.2849314 -12.7670474  47.0145398 -16.5369314
 -12.1100474  47.0755398 -17.2299314 -12.3160474  47.3235398 -15.7509314
 -12.9370474  40.0915398 -10.3169314 -12.0240474  40.2545398 -10.5539314
 -12.8940474  39.7255398  -9.4339314 -18.4400474  45.4615398   1.6120686
 -18.5340474  45.1875398   0.6990686 -18.4500474  46.4175398   1.5780686
  -6.1110474  47.3075398   2.4300686  -6.7840474  46.7335398   2.0640686
  -5.5260474  46.7185398   2.9060686  -5.5760474  39.7855398  -2.1109314
  -5.7640474  40.6355398  -1.7129314  -6.3180474  39.2345398  -1.8629314
 -14.4080474  42.6085398 -10.8709314 -14.0470474  42.9245398 -11.6989314
 -13.9290474  41.7985398 -10.6939314 -18.7380474  46.5105398 -12.9249314
 -19.3100474  46.8015398 -12.2149314 -18.5870474  47.2965398 -13.4499314
 -13.1380474  41.3545398 -13.8419314 -12.2890474  41.2055398 -13.4239314
 -13.1100474  40.8255398 -14.6389314  -9.9180474  44.5495398   1.4220686
  -9.6430474  45.4635398   1.3510686  -9.4550474  44.2195398   2.1920686
  -7.9030474  45.5875398   8.5650686  -7.6780474  45.5125398   9.4920686
  -8.7600474  45.1675398   8.4910686   6.1609526  40.8385398  -5.9029314
   6.2799526  41.1935398  -5.0219314   7.0499526  40.6975398  -6.2279314
 -20.4400474  40.7395398  -9.9969314 -20.9890474  41.4775398 -10.2639314
 -21.0280474  39.9845398 -10.0159314 -14.8900474  39.5215398  -5.4199314
 -14.7230474  40.2745398  -5.9869314 -14.3250474  39.6645398  -4.6589314
  -3.9190474  46.8175398 -13.5139314  -3.0010474  46.8485398 -13.2429314
  -4.0650474  45.9055398 -13.7629314  -9.4660474  39.0345398 -14.3579314
  -8.6490474  39.0135398 -13.8609314  -9.1920474  38.9805398 -15.2739314
 -11.0490474  47.3415398 -18.6649314 -11.4370474  48.1725398 -18.9369314
 -10.1050474  47.4965398 -18.6909314  -8.1780474  43.5005398 -12.7469314
  -7.6220474  42.7245398 -12.8159314  -7.6420474  44.1395398 -12.2769314
 -18.4780474  38.4405398 -10.3309314 -17.9560474  38.7995398  -9.6139314
 -19.2020474  39.0585398 -10.4339314   5.8919526  45.2225398  -4.3659314
   5.6849526  44.8105398  -5.2039314   5.0679526  45.6215398  -4.0849314
 -20.7160474  40.9035398  -4.4629314 -20.9240474  40.4855398  -5.2989314
 -20.1510474  41.6405398  -4.6979314  -2.5560474  39.6625398  -5.0889314
  -1.6650474  39.5355398  -5.4149314  -2.5820474  40.5795398  -4.8139314
 -16.9490474  39.7665398  -8.6439314 -16.2010474  40.3615398  -8.5999314
 -17.7080474  40.3205398  -8.4599314  -4.9460474  43.2485398 -19.1489314
  -5.8580474  43.5165398 -19.0329314  -4.7120474  42.8295398 -18.3199314
 -16.5280474  42.3485398 -13.2049314 -16.0860474  42.6315398 -12.4049314
 -16.1330474  42.8785398 -13.8979314 -12.3770474  43.3075398  -8.3979314
 -12.4630474  43.9785398  -9.0759314 -11.5300474  43.4855398  -7.9899314
  -5.0530474  44.2675398 -13.1629314  -4.1360474  44.0825398 -13.3649314
  -5.5420474  43.8775398 -13.8869314   1.9109526  45.9005398 -10.8729314
   2.0209526  45.2015398 -11.5179314   2.5889526  46.5385398 -11.0929314
  -6.5030474  42.0995398  -0.4349314  -5.8000474  42.7495398  -0.4379314
  -6.7130474  41.9775398   0.4910686 -11.2650474  46.5975398   4.1240686
 -10.9900474  45.9645398   4.7880686 -10.9790474  47.4435398   4.4680686
  -9.4220474  46.8305398  -1.7009314 -10.3380474  46.9435398  -1.4449314
  -9.1920474  47.6505398  -2.1379314 -17.5340474  44.3215398 -14.9429314
 -16.9720474  45.0635398 -15.1659314 -17.7830474  44.4745398 -14.0309314
  -5.8510474  42.7615398 -15.7889314  -5.5870474  41.8985398 -15.4699314
  -6.5770474  42.5835398 -16.3879314   5.9209526  45.7425398 -17.1949314
   5.9599526  45.4485398 -16.2849314   6.6299526  45.2675398 -17.6299314
 -10.0780474  44.5665398   6.3730686 -10.6880474  45.2705398   6.5910686
 -10.6200474  43.9025398   5.9470686  -5.0730474  44.2715398  -1.1309314
  -4.1700474  44.0905398  -1.3939314  -5.1240474  45.2265398  -1.0879314
 -17.2460474  46.6455398  -1.2309314 -16.6470474  46.3495398  -0.5449314
 -17.7210474  45.8565398  -1.4909314 -16.9990474  44.7345398   3.6930686
 -17.0460474  43.7785398   3.6780686 -17.6520474  45.0175398   3.0540686
 -10.8300474  40.7585398   6.1720686 -11.0150474  40.8125398   7.1090686
 -11.2350474  41.5425398   5.8010686  -2.7940474  42.3075398  -4.4559314
  -2.3020474  42.9715398  -4.9389314  -3.6460474  42.2765398  -4.8909314
 -17.2140474  45.0315398   8.4820686 -16.6370474  45.2545398   7.7520686
 -16.6800474  45.1775398   9.2630686 -12.7900474  40.2335398 -16.0709314
 -13.3400474  40.3045398 -16.8519314 -11.9360474  40.5645398 -16.3489314
 -15.7550474  45.6105398   6.0580686 -16.2360474  45.4965398   5.2390686
 -15.6360474  46.5565398   6.1370686   1.8579526  44.5405398  -2.3369314
   0.9189526  44.5005398  -2.5189314   2.2719526  44.2115398  -3.1349314
 -11.4870474  39.8845398   2.8810686 -11.1120474  39.7655398   3.7540686
 -10.7370474  40.0905398   2.3230686 -18.5360474  40.5055398   3.1090686
 -17.8650474  41.0575398   3.5120686 -19.1560474  41.1245398   2.7250686
 -21.1350474  39.0965398   9.4530686 -20.3350474  39.5425398   9.7310686
 -21.8020474  39.7835398   9.4450686 -12.0980474  42.9805398   5.2230686
 -12.9970474  43.0435398   5.5460686 -12.1880474  42.9345398   4.2710686
 -15.4990474  46.7175398   3.0560686 -15.9060474  45.8595398   3.1740686
 -16.0120474  47.1335398   2.3630686 -16.9510474  40.9565398  10.1690686
 -17.5070474  40.8845398  10.9440686 -17.4350474  40.4985398   9.4820686
   6.0239526  38.3755398   7.8850686   6.3939526  39.1195398   8.3600686
   6.5489526  38.3145398   7.0870686  -4.0830474  42.0015398   2.8670686
  -4.0510474  41.0875398   3.1510686  -3.5730474  42.0185398   2.0570686
  -8.2520474  40.1145398   4.8450686  -7.6110474  40.0215398   5.5500686
  -9.0190474  40.5005398   5.2680686 -15.6990474  46.4765398 -14.0969314
 -16.2680474  47.2285398 -13.9319314 -14.9410474  46.6195398 -13.5309314
   7.2059526  46.6355398  -8.0609314   7.2829526  45.7215398  -8.3359314
   6.3839526  46.9345398  -8.4489314 -16.0010474  43.0405398  -4.0119314
 -16.4830474  43.5925398  -4.6269314 -16.6280474  42.8555398  -3.3129314
  -7.6590474  46.7495398   5.8500686  -8.3730474  46.1165398   5.9210686
  -7.1880474  46.6745398   6.6800686  -7.4670474  38.6315398  -6.2539314
  -6.8020474  37.9815398  -6.0249314  -7.3220474  39.3505398  -5.6399314
 -17.7950474  42.4765398   7.3900686 -18.7230474  42.6115398   7.1990686
 -17.5610474  43.2005398   7.9700686  -1.3680474  40.7495398   4.8230686
  -1.7150474  40.5865398   3.9460686  -1.4670474  39.9145398   5.2800686
 -22.7430474  47.2785398   0.8880686 -23.0270474  46.4755398   1.3240686
 -22.9290474  47.9735398   1.5190686 -19.3530474  45.6615398   6.5610686
 -18.5530474  45.1425398   6.6450686 -19.4990474  45.7255398   5.6170686
   5.5229526  39.7875398  -1.7109314   5.4659526  38.8635398  -1.4669314
   5.4689526  40.2585398  -0.8789314  -7.0760474  41.7815398 -17.9899314
  -6.5170474  41.0055398 -18.0279314  -7.4210474  41.8725398 -18.8779314
 -22.0350474  41.8885398   4.4770686 -22.3540474  41.0115398   4.2660686
 -21.2720474  42.0095398   3.9110686 -12.3910474  45.6485398  -3.5559314
 -12.3660474  44.7945398  -3.1239314 -12.7690474  45.4705398  -4.4169314
  -7.3520474  42.6595398   6.6320686  -8.0470474  43.3175398   6.6430686
  -7.1190474  42.5715398   5.7080686 -13.5320474  46.5545398   8.7740686
 -14.1080474  46.6475398   8.0150686 -12.7230474  46.9965398   8.5170686
 -14.9630474  45.5675398   0.2530686 -14.9860474  44.6115398   0.2260686
 -14.1230474  45.7765398   0.6630686 -21.7880474  44.5245398  -9.8419314
 -22.2610474  44.7915398 -10.6299314 -20.9890474  45.0515398  -9.8509314
 -20.7420474  43.1475398  -7.3929314 -21.2180474  43.4885398  -8.1499314
 -21.0660474  43.6615398  -6.6539314  -9.0500474  45.2095398 -17.0129314
  -9.8420474  45.6725398 -17.2889314  -9.3590474  44.5645398 -16.3769314
  -9.8190474  43.5965398 -14.8189314  -9.2270474  43.5875398 -14.0669314
 -10.5120474  42.9785398 -14.5859314 -13.7430474  43.9085398 -13.7349314
 -14.0590474  44.1415398 -14.6079314 -13.4910474  42.9885398 -13.8079314
 -10.0540474  40.5225398  -9.8749314  -9.2760474  40.0265398  -9.6189314
 -10.2710474  41.0445398  -9.1029314  -2.8240474  41.5025398 -18.0649314
  -2.4770474  40.8185398 -18.6379314  -3.6850474  41.1785398 -17.7999314
   5.2669526  40.8925398   0.6680686   4.4649526  40.6795398   1.1460686
   5.5189526  41.7565398   0.9930686 -21.9180474  38.4655398   6.2540686
 -21.1330474  38.5365398   5.7110686 -21.6680474  38.8595398   7.0900686
 -12.4770474  39.9145398  -3.7609314 -12.3110474  39.9425398  -2.8179314
 -12.2020474  40.7745398  -4.0779314   3.4279526  46.9915398  -4.7759314
   3.0219526  47.8585398  -4.7559314   2.6899526  46.3815398  -4.7829314
  -9.2660474  38.9135398 -17.6359314 -10.0470474  38.6905398 -18.1419314
  -9.2610474  39.8705398 -17.6099314 -19.7360474  39.0535398 -14.9089314
 -18.7810474  39.1205398 -14.9149314 -20.0320474  39.8785398 -14.5249314
  -9.9590474  39.7755398  -6.9479314  -9.3360474  39.0755398  -6.7509314
 -10.8030474  39.4345398  -6.6529314 -15.7100474  40.6555398   0.3140686
 -15.1580474  39.8895398   0.1570686 -16.4610474  40.3145398   0.8010686
   4.4429526  38.7805398  -6.6499314   4.5999526  38.1435398  -5.9529314
   5.0269526  39.5105398  -6.4439314 -14.5520474  42.6485398 -17.6229314
 -14.4610474  43.2915398 -16.9199314 -15.3730474  42.1945398 -17.4289314
 -19.4690474  44.6515398 -17.5779314 -18.9070474  45.3185398 -17.9729314
 -18.9340474  44.2695398 -16.8819314 -22.7730474  42.0295398 -13.6459314
 -22.9180474  41.1155398 -13.8879314 -22.8370474  42.0375398 -12.6909314
  -3.0060474  38.7615398   6.8320686  -3.6030474  38.5235398   7.5410686
  -2.6140474  39.5875398   7.1150686 -14.2140474  43.4065398   6.7360686
 -14.3440474  43.3055398   7.6790686 -14.9430474  43.9575398   6.4500686
 -17.8550474  39.4705398   8.1340686 -17.6730474  40.2795398   7.6570686
 -17.9860474  38.8135398   7.4500686 -14.4500474  41.0245398   5.4460686
 -14.8180474  40.2825398   5.9250686 -14.4410474  41.7395398   6.0820686
   3.8609526  42.1355398   3.2440686   3.8629526  41.3075398   3.7240686
   4.4449526  42.7045398   3.7440686 -12.9910474  42.0245398   2.3410686
 -13.7950474  41.9315398   2.8520686 -12.4010474  41.3605398   2.6970686
 -12.0650474  40.6615398   8.6460686 -12.9450474  40.4625398   8.3260686
 -12.1890474  40.8805398   9.5690686  -7.0310474  40.5745398   2.2160686
  -7.3950474  40.4265398   3.0890686  -6.1270474  40.2665398   2.2780686
  -8.3750474  41.8275398   9.2540686  -8.7380474  40.9585398   9.0780686
  -7.8560474  42.0315398   8.4760686  -9.8450474  40.0245398   0.5170686
  -8.9450474  40.0745398   0.8400686  -9.9700474  39.1015398   0.2970686
 -14.6570474  39.7375398   8.6600686 -15.3140474  39.8785398   9.3420686
 -14.7210474  38.8035398   8.4560686  -4.4230474  46.4985398 -17.8759314
  -3.7100474  46.8525398 -17.3449314  -4.8590474  47.2705398 -18.2379314
   2.1839526  41.4835398   5.9210686   1.8499526  41.1645398   5.0830686
   2.7269526  40.7675398   6.2510686 -13.8240474  39.6465398 -18.3079314
 -14.5080474  38.9765398 -18.3319314 -14.2370474  40.4245398 -18.6809314
 -17.4080474  38.6465398   1.4140686 -17.7580474  39.2735398   2.0470686
 -17.5460474  37.7915398   1.8230686  -8.2390474  46.2665398 -14.1279314
  -7.5470474  46.1455398 -14.7779314  -8.5100474  45.3775398 -13.8989314
 -10.6670474  44.8165398 -11.6059314  -9.8460474  44.3895398 -11.8489314
 -11.3330474  44.3725398 -12.1309314 -12.1360474  44.6815398  10.4830686
 -11.7890474  45.3595398  11.0620686 -12.7560474  45.1425398   9.9170686
  -3.5330474  46.0165398  -6.6909314  -3.3460474  46.4495398  -7.5239314
  -3.9300474  46.6985398  -6.1489314   4.5689526  42.4645398  -8.8299314
   4.4269526  42.7645398  -9.7269314   4.8039526  41.5405398  -8.9189314
   0.9319526  46.3815398  -8.3499314   0.3549526  46.9555398  -8.8529314
   1.5929526  46.0945398  -8.9799314   1.2299526  39.8205398  -8.5409314
   0.3139526  39.9395398  -8.2909314   1.1999526  39.2125398  -9.2789314
 -22.8490474  45.1985398  -1.8999314 -22.1310474  45.8025398  -1.7109314
 -23.1920474  45.4915398  -2.7439314  -4.2870474  43.3605398  -6.9749314
  -3.7170474  42.9535398  -7.6279314  -3.9130474  44.2315398  -6.8389314
   4.8509526  41.2555398 -15.5339314   5.3059526  40.4885398 -15.8819314
   4.1309526  41.4055398 -16.1459314  -7.0400474  45.4875398 -18.8229314
  -7.7070474  45.3225398 -18.1559314  -6.4530474  46.1275398 -18.4219314
   3.0299526  43.9065398  -4.7149314   3.2489526  44.3095398  -5.5549314
   2.8529526  42.9905398  -4.9269314   2.5409526  45.4405398 -13.9839314
   1.9759526  44.6775398 -14.1049314   2.8539526  45.6495398 -14.8649314
  -6.2020474  45.4765398 -15.5969314  -5.7130474  45.9855398 -16.2439314
  -6.1250474  44.5705398 -15.8969314 -17.2940474  42.3865398  -1.5209314
 -16.7800474  41.8855398  -0.8889314 -17.8000474  41.7265398  -1.9959314
   2.3869526  44.0875398   0.2560686   3.2619526  43.7525398   0.0600686
   2.0119526  44.2945398  -0.5999314 -12.4020474  45.6055398   1.4310686
 -11.5620474  45.2635398   1.1230686 -12.2810474  45.7255398   2.3730686
   6.6229526  39.1705398 -16.1069314   7.2859526  39.2335398 -16.7939314
   6.2329526  38.3045398 -16.2289314 -22.3510474  41.9075398 -17.3769314
 -22.0060474  42.4125398 -18.1129314 -23.2900474  41.8405398 -17.5509314
  -4.8930474  45.4775398   7.7360686  -5.5840474  45.0315398   8.2250686
  -4.8100474  44.9755398   6.9250686   3.8329526  42.0845398  -1.6209314
   3.5559526  42.5535398  -2.4079314   3.1369526  41.4475398  -1.4629314
  -3.0140474  46.2535398   9.7510686  -3.4540474  45.9885398   8.9430686
  -3.6360474  46.0395398  10.4450686  -1.6430474  39.2265398 -10.8999314
  -1.5100474  39.5705398 -10.0169314  -2.3180474  38.5555398 -10.7959314
   1.2739526  42.9005398   9.7920686   1.0099526  43.4925398   9.0880686
   0.5249526  42.8885398  10.3890686   4.1109526  39.0855398   3.8730686
   3.2019526  38.8435398   3.6940686   4.5489526  38.2545398   4.0570686
   0.4529526  43.5155398  -7.6679314   0.8549526  44.3515398  -7.9059314
   1.1939526  42.9355398  -7.4899314   2.0659526  39.4995398   0.6300686
   1.7629526  39.8675398  -0.1999314   1.5659526  39.9685398   1.2980686
   3.4119526  45.9635398   4.4590686   3.3919526  45.2235398   5.0650686
   4.1949526  46.4555398   4.7070686 -22.8790474  44.8055398 -12.1939314
 -23.4570474  44.3645398 -12.8179314 -22.2010474  45.2075398 -12.7379314
 -17.4990474  40.1095398  -5.3819314 -16.5570474  40.0165398  -5.5289314
 -17.7900474  40.7155398  -6.0629314 -10.8690474  42.2595398 -19.1739314
 -11.4610474  42.9825398 -19.3809314 -10.1940474  42.3005398 -19.8519314
   1.5499526  40.5575398  -1.9169314   1.7879526  40.6545398  -2.8389314
   1.0099526  39.7675398  -1.8899314 -14.3600474  42.8695398  -0.0549314
 -13.7530474  42.5665398   0.6210686 -15.0950474  42.2575398  -0.0079314
   4.7639526  45.7005398   9.0100686   5.2829526  46.4745398   8.7900686
   4.6039526  45.2705398   8.1700686  -1.6760474  40.2005398  -8.4329314
  -1.8530474  40.2185398  -7.4929314  -1.8120474  41.1035398  -8.7199314
  -0.7930474  44.6945398  -3.0219314  -1.3340474  45.2885398  -2.5019314
  -1.2290474  44.6545398  -3.8729314   5.0849526  40.0145398 -10.1869314
   4.7589526  39.2445398  -9.7219314   4.6759526  39.9645398 -11.0509314
 -20.2140474  42.5605398   2.3880686 -20.6040474  42.0575398   1.6730686
 -19.9100474  43.3685398   1.9730686 -10.7700474  45.9265398  -7.2609314
  -9.8300474  45.9015398  -7.4399314 -10.9430474  45.1205398  -6.7749314
 -20.9430474  46.7225398  -1.0559314 -20.0920474  47.1265398  -0.8879314
 -21.5010474  47.0325398  -0.3429314   4.5939526  44.4285398  -6.8069314
   4.7249526  43.6035398  -7.2749314   4.5229526  45.0875398  -7.4979314
 -16.8440474  41.9755398 -16.1479314 -17.1970474  42.8395398 -15.9339314
 -17.5340474  41.5565398 -16.6629314  -2.7470474  41.7195398 -12.3089314
  -2.1210474  41.1535398 -11.8559314  -3.4810474  41.8005398 -11.7009314
  -0.7450474  46.2385398 -10.8479314   0.1689526  45.9545398 -10.8799314
  -0.7820474  46.9945398 -11.4339314   4.2009526  46.3935398  -8.7239314
   3.7599526  47.1305398  -8.3009314   4.3759526  46.6985398  -9.6149314
   1.5209526  46.7035398 -19.3169314   2.0899526  47.3035398 -19.7989314
   2.0399526  46.4395398 -18.5569314  -2.4640474  44.1955398 -13.5319314
  -2.2200474  43.4095398 -13.0439314  -1.6290474  44.5705398 -13.8149314
  -7.8390474  41.5805398  -7.5099314  -6.9790474  41.1725398  -7.6129314
  -8.3330474  40.9665398  -6.9659314 -21.6550474  45.2815398  -5.3199314
 -22.5430474  45.2085398  -4.9729314 -21.3620474  46.1515398  -5.0499314
   1.8779526  40.5855398 -13.5839314   1.2739526  39.8425398 -13.5709314
   2.7479526  40.1865398 -13.5789314   1.5949526  42.2565398 -11.1459314
   1.7559526  41.5965398 -11.8199314   2.4589526  42.4335398 -10.7719314
  -1.4890474  44.4295398  -5.7569314  -2.1650474  44.9245398  -6.2199314
  -0.8710474  44.1705398  -6.4409314   4.3279526  43.4405398 -11.4219314
   4.4809526  44.3615398 -11.2089314   4.6509526  43.3455398 -12.3179314
   0.3489526  38.9395398  -5.2579314   0.7939526  38.2325398  -5.7249314
   1.0389526  39.5755398  -5.0709314  -6.6480474  44.1335398  -7.6779314
  -5.7540474  43.8235398  -7.5379314  -7.1830474  43.3405398  -7.6569314
   2.3509526  40.9925398  -4.3329314   3.2499526  40.6685398  -4.2689314
   2.2029526  41.1055398  -5.2719314   0.1109526  46.9045398 -15.9779314
   0.3049526  47.8405398 -16.0329314   0.5279526  46.6205398 -15.1639314
  -4.5130474  40.2375398 -14.9759314  -4.7380474  39.5025398 -14.4059314
  -3.5570474  40.2775398 -14.9489314  -3.0000474  46.8375398  -9.4169314
  -3.0000474  47.7215398  -9.7839314  -2.2960474  46.3855398  -9.8799314
  -4.3650474  44.7055398 -10.5369314  -4.2230474  44.7755398 -11.4809314
  -4.0510474  45.5375398 -10.1839314  -5.3270474  40.5875398  -7.7839314
  -5.3740474  40.3955398  -6.8469314  -5.4680474  39.7425398  -8.2089314
   0.1779526  44.5155398 -17.1969314   0.2079526  45.4335398 -16.9279314
  -0.3330474  44.5185398 -18.0059314   0.1829526  43.0515398   7.1340686
   0.8829526  42.6235398   6.6420686  -0.4540474  43.3115398   6.4690686
   7.0899526  41.7825398 -10.7479314   6.3779526  41.1575398 -10.6109314
   6.7139526  42.6305398 -10.5139314 -14.9870474  39.3995398 -12.4219314
 -14.5240474  39.8745398 -11.7319314 -15.2980474  40.0825398 -13.0159314
   3.1529526  44.6725398 -16.6099314   3.8659526  44.9465398 -17.1869314
   2.5659526  44.1715398 -17.1759314   5.4559526  43.9375398  -0.1819314
   5.8939526  44.4635398  -0.8509314   5.1499526  43.1605398  -0.6499314
  -9.2040474  39.2785398   9.3110686 -10.1010474  39.1455398   9.6160686
  -8.6650474  39.1625398  10.0940686  -1.9680474  42.8545398  -1.7279314
  -2.3280474  42.3765398  -2.4749314  -1.3860474  43.5065398  -2.1189314
   1.2029526  40.2055398   8.6320686   1.8709526  39.9005398   8.0180686
   1.4959526  41.0795398   8.8900686 -22.2270474  42.9515398   7.0970686
 -22.0880474  42.8055398   6.1620686 -22.0330474  43.8795398   7.2270686
  -1.7160474  43.4705398   4.9250686  -2.5600474  43.7345398   5.2900686
  -1.6540474  42.5345398   5.1150686   3.6339526  44.0495398   6.4560686
   2.9109526  43.4365398   6.3230686   4.4129526  43.5645398   6.1830686
 -20.2610474  45.5425398   3.8470686 -19.9940474  46.3545398   3.4150686
 -20.8060474  45.0945398   3.1990686   4.0989526  46.2245398   1.4270686
   4.2539526  46.0375398   2.3530686   3.2649526  45.7955398   1.2330686
  -0.7230474  45.8195398   3.7510686  -0.2770474  45.7005398   2.9130686
  -0.9250474  44.9305398   4.0440686 -21.1960474  43.2185398 -15.2559314
 -21.5170474  42.8015398 -16.0559314 -21.8240474  42.9595398 -14.5819314
   4.9789526  41.4095398 -18.6939314   4.2289526  40.8365398 -18.5329314
   4.6609526  42.2865398 -18.4829314  -5.3210474  44.4155398   2.3820686
  -4.9830474  43.5215398   2.4320686  -4.6700474  44.8905398   1.8650686
  -4.2770474  42.2635398   8.2160686  -3.4640474  41.7655398   8.1310686
  -4.3240474  42.4905398   9.1450686  -2.8420474  45.0725398   1.1940686
  -2.4990474  44.2105398   0.9590686  -2.0630474  45.6075398   1.3460686
   6.5039526  41.6365398  -3.4109314   6.3269526  40.8555398  -2.8859314
   5.9969526  42.3295398  -2.9869314  -5.0300474  46.0955398   4.6390686
  -5.1520474  45.1465398   4.6090686  -5.8940474  46.4415398   4.8650686
   6.9399526  41.0645398   9.2250686   6.4019526  41.3945398   9.9440686
   6.8099526  41.6965398   8.5180686   1.0909526  43.1775398 -14.4119314
   0.9749526  42.9935398 -15.3439314   1.3379526  42.3355398 -14.0299314
   5.7879526  43.4515398   4.4900686   6.3189526  44.1355398   4.8990686
   6.3609526  42.6855398   4.4650686 -20.3930474  42.2615398   9.5110686
 -20.5700474  43.2005398   9.5540686 -20.9050474  41.9535398   8.7630686
   0.1869526  45.5645398   1.2490686   0.6619526  46.2605398   0.7950686
   0.6729526  44.7665398   1.0390686 -22.7890474  45.6445398   5.5530686
 -21.9090474  45.7785398   5.1990686 -23.2320474  46.4825398   5.4180686
  -1.6270474  42.6835398  -9.2459314  -0.7390474  42.9015398  -8.9629314
  -1.9530474  43.4875398  -9.6519314 -16.8580474  44.5095398  -6.4929314
 -16.1480474  44.3965398  -7.1249314 -16.9300474  45.4565398  -6.3789314
   1.2039526  42.1865398   1.6400686   1.6779526  42.9465398   1.3010686
   1.6319526  41.9895398   2.4730686  -9.1680474  44.9235398  -3.8439314
  -8.6650474  45.3185398  -4.5559314  -9.4820474  45.6685398  -3.3309314
  -5.6940474  40.7125398  -5.2199314  -5.4530474  40.1545398  -4.4799314
  -5.9140474  41.5555398  -4.8229314 -16.7340474  42.1165398   4.3780686
 -15.8780474  41.9045398   4.7510686 -17.2830474  42.3155398   5.1360686
   4.5639526  46.7665398 -12.1059314   4.1689526  47.5265398 -12.5339314
   4.5429526  46.0795398 -12.7719314 -18.2710474  46.6765398 -19.1219314
 -18.3600474  47.6125398 -18.9429314 -17.3300474  46.5105398 -19.0669314
 -19.3310474  43.7645398  -4.7599314 -18.6230474  44.2175398  -5.2189314
 -20.0630474  44.3815398  -4.7789314  -8.5420474  47.0655398   1.0080686
  -8.4830474  48.0175398   1.0850686  -8.5120474  46.8985398   0.0660686
 -21.2000474  43.0295398  -2.1209314 -21.6420474  42.5835398  -2.8439314
 -21.8290474  43.6875398  -1.8249314 -19.1240474  41.6095398 -13.9419314
 -18.1700474  41.6865398 -13.9089314 -19.4070474  42.3545398 -14.4719314
  -3.3560474  38.5295398  -2.2459314  -3.0580474  38.8195398  -3.1079314
  -4.2300474  38.9075398  -2.1539314  -6.6730474  41.0635398 -12.4469314
  -6.4120474  40.1875398 -12.7299314  -5.8530474  41.4905398 -12.2009314
  -5.0550474  42.1195398 -10.6599314  -4.8880474  43.0495398 -10.5039314
  -5.2150474  41.7545398  -9.7899314  -1.2110474  38.4825398  -0.0769314
  -0.5990474  38.2685398  -0.7819314  -1.9540474  38.8915398  -0.5209314
  -1.7960474  40.5815398 -14.7439314  -1.7990474  41.1305398 -13.9589314
  -1.3490474  41.1105398 -15.4049314   2.3189526  41.7175398  -7.0729314
   1.9459526  41.1105398  -7.7119314   3.1749526  41.9495398  -7.4329314
   2.6059526  40.6115398 -17.2089314   1.7869526  41.1045398 -17.2539314
   2.3689526  39.7895398 -16.7799314 -11.1150474  42.6515398  -4.0169314
 -11.8520474  42.8575398  -3.4409314 -10.4130474  43.2325398  -3.7249314
  -6.8630474  43.0345398  -3.7119314  -6.8290474  42.9805398  -2.7569314
  -7.4570474  43.7645398  -3.8889314   4.4469526  39.6505398 -13.2159314
   4.7209526  40.1335398 -13.9959314   5.1039526  38.9615398 -13.1169314
 -22.7810474  38.7495398 -13.3389314 -22.7760474  38.6775398 -14.2939314
 -22.2360474  38.0215398 -13.0409314  -5.1070474  39.9685398 -17.4679314
  -5.0920474  39.7785398 -16.5299314  -4.9140474  39.1285398 -17.8859314
 -15.0640474  43.1245398   9.3480686 -14.6890474  43.2095398  10.2240686
 -15.5470474  42.2985398   9.3720686  -1.8180474  41.3175398   8.2350686
  -1.2810474  40.7365398   8.7740686  -1.2040474  41.9735398   7.9040686
   6.8289526  39.7205398   3.2440686   7.0619526  39.0685398   2.5830686
   5.8869526  39.6055398   3.3730686   3.7179526  43.6395398  10.6730686
   2.8939526  43.2425398  10.3910686   3.7129526  44.5095398  10.2740686
   3.2069526  39.1475398   7.0560686   2.9769526  38.5585398   6.3380686
   3.9999526  38.7675398   7.4340686 -19.1140474  41.1105398 -17.9469314
 -19.7510474  41.5685398 -18.4959314 -19.6410474  40.5245398 -17.4049314
  -2.1720474  42.3725398   0.7640686  -2.0470474  42.4225398  -0.1829314
  -1.3010474  42.5235398   1.1300686  -6.0740474  39.6805398   7.6070686
  -5.4340474  39.0655398   7.9670686  -5.7870474  40.5375398   7.9220686
   1.0479526  40.1375398   3.8790686   0.1739526  40.4165398   4.1540686
   1.0909526  39.2115398   4.1180686   6.4479526  44.9365398   2.2590686
   6.0589526  44.6415398   1.4360686   6.1159526  44.3235398   2.9150686
  -0.5940474  39.0735398 -19.4629314  -0.0610474  38.7965398 -18.7179314
   0.0419526  39.2875398 -20.1459314 -20.8460474  40.9125398   0.1570686
 -20.8740474  41.5715398  -0.5369314 -21.5180474  40.2765398  -0.0879314
 -22.0410474  44.6875398 -18.5779314 -21.7120474  45.1415398 -19.3539314
 -21.2970474  44.6685398 -17.9769314  -1.6220474  43.7335398  40.4480686
  -2.3690474  43.4245398  40.9610686  -1.9900474  44.3965398  39.8640686
  -1.7850474  39.6195398  32.2520686  -1.9450474  38.7705398  31.8400686
  -1.2750474  40.1085398  31.6060686 -17.0310474  45.4395398  19.2180686
 -17.4960474  44.6425398  18.9650686 -17.0070474  45.9665398  18.4190686
 -13.8460474  47.1525398  28.3430686 -14.4520474  46.7195398  28.9450686
 -13.5160474  46.4465398  27.7870686 -20.3770474  45.6335398  39.3640686
 -19.6360474  46.0455398  39.8100686 -20.0470474  45.4305398  38.4890686
   5.1269526  44.0335398  16.0660686   4.1869526  44.1535398  15.9300686
   5.3059526  43.1495398  15.7470686  -4.4780474  43.3275398  35.5630686
  -4.7950474  42.9845398  36.3980686  -4.5380474  42.5865398  34.9600686
 -21.3210474  46.3385398  15.6550686 -20.9970474  45.5505398  15.2200686
 -20.5350474  46.7645398  15.9980686 -18.5320474  40.1655398  27.1550686
 -19.4630474  40.3025398  26.9810686 -18.1420474  40.0415398  26.2900686
 -11.8910474  40.6515398  28.6630686 -12.1530474  41.5725398  28.6560686
 -11.2180474  40.5985398  29.3410686  -7.7550474  39.1505398  19.3890686
  -8.1450474  39.8985398  18.9370686  -7.8200474  38.4305398  18.7620686
 -14.5560474  44.8545398  14.0190686 -13.8920474  45.3765398  13.5690686
 -14.9220474  45.4475398  14.6760686 -13.8240474  41.2775398  22.8180686
 -13.6440474  41.7335398  21.9960686 -13.1370474  41.5765398  23.4150686
  -0.4550474  42.0755398  13.1810686  -1.2280474  42.0455398  12.6170686
  -0.1120474  42.9625398  13.0700686 -15.7020474  46.6735398  40.3690686
 -15.5500474  47.2125398  41.1450686 -14.8450474  46.6115398  39.9480686
 -18.2230474  42.0815398  22.8640686 -19.0760474  42.4205398  22.5900686
 -17.6790474  42.8615398  22.9710686  -7.3390474  42.9725398  33.7250686
  -6.7870474  43.6135398  33.2770686  -7.6430474  42.3895398  33.0300686
 -10.9680474  43.4015398  28.9480686 -10.0990474  43.7875398  28.8410686
 -11.1440474  43.4625398  29.8870686 -13.5190474  44.4685398  24.0770686
 -14.4420474  44.2915398  24.2580686 -13.3650474  44.0805398  23.2160686
 -10.1830474  43.2125398  23.5520686  -9.3540474  42.7465398  23.4400686
 -10.5400474  42.8715398  24.3730686 -11.6320474  47.1225398  19.8670686
 -11.5690474  46.4135398  20.5080686 -12.2370474  47.7495398  20.2610686
 -16.9030474  39.3505398  14.9800686 -16.0540474  38.9415398  14.8110686
 -16.7490474  40.2855398  14.8480686 -13.4980474  47.1915398  17.0810686
 -13.0090474  46.9255398  17.8600686 -12.8910474  47.7525398  16.5980686
 -10.7190474  41.4975398  17.1660686 -10.3270474  41.9775398  17.8960686
 -10.0840474  40.8105398  16.9610686 -19.1170474  44.3995398  29.0630686
 -18.3740474  43.8645398  28.7850686 -19.8680474  44.0245398  28.6020686
 -15.6450474  43.9575398  21.2870686 -16.2600474  44.5355398  20.8350686
 -15.2690474  43.4165398  20.5930686 -18.4200474  42.7855398  19.1280686
 -19.0910474  42.1475398  19.3680686 -18.1580474  42.5375398  18.2420686
 -10.2940474  41.2125398  13.1630686 -10.6620474  41.5825398  12.3610686
  -9.6350474  41.8495398  13.4410686  -7.2710474  45.0825398  19.5040686
  -7.2900474  45.0825398  20.4610686  -6.3690474  45.3165398  19.2830686
 -21.3340474  40.3075398  22.8960686 -21.2400474  39.8685398  22.0510686
 -21.1290474  41.2245398  22.7150686 -12.7670474  47.0145398  13.4630686
 -12.1100474  47.0755398  12.7700686 -12.3160474  47.3235398  14.2490686
 -12.9370474  40.0915398  19.6830686 -12.0240474  40.2545398  19.4460686
 -12.8940474  39.7255398  20.5660686 -18.4400474  45.4615398  31.6120686
 -18.5340474  45.1875398  30.6990686 -18.4500474  46.4175398  31.5780686
  -6.1110474  47.3075398  32.4300686  -6.7840474  46.7335398  32.0640686
  -5.5260474  46.7185398  32.9060686  -5.5760474  39.7855398  27.8890686
  -5.7640474  40.6355398  28.2870686  -6.3180474  39.2345398  28.1370686
 -14.4080474  42.6085398  19.1290686 -14.0470474  42.9245398  18.3010686
 -13.9290474  41.7985398  19.3060686 -18.7380474  46.5105398  17.0750686
 -19.3100474  46.8015398  17.7850686 -18.5870474  47.2965398  16.5500686
 -13.1380474  41.3545398  16.1580686 -12.2890474  41.2055398  16.5760686
 -13.1100474  40.8255398  15.3610686  -9.9180474  44.5495398  31.4220686
  -9.6430474  45.4635398  31.3510686  -9.4550474  44.2195398  32.1920686
  -7.9030474  45.5875398  38.5650686  -7.6780474  45.5125398  39.4920686
  -8.7600474  45.1675398  38.4910686   6.1609526  40.8385398  24.0970686
   6.2799526  41.1935398  24.9780686   7.0499526  40.6975398  23.7720686
 -20.4400474  40.7395398  20.0030686 -20.9890474  41.4775398  19.7360686
 -21.0280474  39.9845398  19.9840686 -14.8900474  39.5215398  24.5800686
 -14.7230474  40.2745398  24.0130686 -14.3250474  39.6645398  25.3410686
  -3.9190474  46.8175398  16.4860686  -3.0010474  46.8485398  16.7570686
  -4.0650474  45.9055398  16.2370686  -9.4660474  39.0345398  15.6420686
  -8.6490474  39.0135398  16.1390686  -9.1920474  38.9805398  14.7260686
 -11.0490474  47.3415398  11.3350686 -11.4370474  48.1725398  11.0630686
 -10.1050474  47.4965398  11.3090686  -8.1780474  43.5005398  17.2530686
  -7.6220474  42.7245398  17.1840686  -7.6420474  44.1395398  17.7230686
 -18.4780474  38.4405398  19.6690686 -17.9560474  38.7995398  20.3860686
 -19.2020474  39.0585398  19.5660686   5.8919526  45.2225398  25.6340686
   5.6849526  44.8105398  24.7960686   5.0679526  45.6215398  25.9150686
 -20.7160474  40.9035398  25.5370686 -20.9240474  40.4855398  24.7010686
 -20.1510474  41.6405398  25.3020686  -2.5560474  39.6625398  24.9110686
  -1.6650474  39.5355398  24.5850686  -2.5820474  40.5795398  25.1860686
 -16.9490474  39.7665398  21.3560686 -16.2010474  40.3615398  21.4000686
 -17.7080474  40.3205398  21.5400686  -4.9460474  43.2485398  10.8510686
  -5.8580474  43.5165398  10.9670686  -4.7120474  42.8295398  11.6800686
 -16.5280474  42.3485398  16.7950686 -16.0860474  42.6315398  17.5950686
 -16.1330474  42.8785398  16.1020686 -12.3770474  43.3075398  21.6020686
 -12.4630474  43.9785398  20.9240686 -11.5300474  43.4855398  22.0100686
  -5.0530474  44.2675398  16.8370686  -4.1360474  44.0825398  16.6350686
  -5.5420474  43.8775398  16.1130686   1.9109526  45.9005398  19.1270686
   2.0209526  45.2015398  18.4820686   2.5889526  46.5385398  18.9070686
  -6.5030474  42.0995398  29.5650686  -5.8000474  42.7495398  29.5620686
  -6.7130474  41.9775398  30.4910686 -11.2650474  46.5975398  34.1240686
 -10.9900474  45.9645398  34.7880686 -10.9790474  47.4435398  34.4680686
  -9.4220474  46.8305398  28.2990686 -10.3380474  46.9435398  28.5550686
  -9.1920474  47.6505398  27.8620686 -17.5340474  44.3215398  15.0570686
 -16.9720474  45.0635398  14.8340686 -17.7830474  44.4745398  15.9690686
  -5.8510474  42.7615398  14.2110686  -5.5870474  41.8985398  14.5300686
  -6.5770474  42.5835398  13.6120686 -13.6100474  43.2195398  27.1960686
 -14.4320474  43.2365398  26.7060686 -13.8790474  43.1805398  28.1140686
   5.9209526  45.7425398  12.8050686   5.9599526  45.4485398  13.7150686
   6.6299526  45.2675398  12.3700686 -10.0780474  44.5665398  36.3730686
 -10.6880474  45.2705398  36.5910686 -10.6200474  43.9025398  35.9470686
  -5.0730474  44.2715398  28.8690686  -4.1700474  44.0905398  28.6060686
  -5.1240474  45.2265398  28.9120686 -17.2460474  46.6455398  28.7690686
 -16.6470474  46.3495398  29.4550686 -17.7210474  45.8565398  28.5090686
 -16.9990474  44.7345398  33.6930686 -17.0460474  43.7785398  33.6780686
 -17.6520474  45.0175398  33.0540686 -10.8300474  40.7585398  36.1720686
 -11.0150474  40.8125398  37.1090686 -11.2350474  41.5425398  35.8010686
  -2.7940474  42.3075398  25.5440686  -2.3020474  42.9715398  25.0610686
  -3.6460474  42.2765398  25.1090686 -17.2140474  45.0315398  38.4820686
 -16.6370474  45.2545398  37.7520686 -16.6800474  45.1775398  39.2630686
 -12.7900474  40.2335398  13.9290686 -13.3400474  40.3045398  13.1480686
 -11.9360474  40.5645398  13.6510686 -15.7550474  45.6105398  36.0580686
 -16.2360474  45.4965398  35.2390686 -15.6360474  46.5565398  36.1370686
   1.8579526  44.5405398  27.6630686   0.9189526  44.5005398  27.4810686
   2.2719526  44.2115398  26.8650686 -11.4870474  39.8845398  32.8810686
 -11.1120474  39.7655398  33.7540686 -10.7370474  40.0905398  32.3230686
 -18.5360474  40.5055398  33.1090686 -17.8650474  41.0575398  33.5120686
 -19.1560474  41.1245398  32.7250686 -21.1350474  39.0965398  39.4530686
 -20.3350474  39.5425398  39.7310686 -21.8020474  39.7835398  39.4450686
 -12.0980474  42.9805398  35.2230686 -12.9970474  43.0435398  35.5460686
 -12.1880474  42.9345398  34.2710686 -15.4990474  46.7175398  33.0560686
 -15.9060474  45.8595398  33.1740686 -16.0120474  47.1335398  32.3630686
 -16.9510474  40.9565398  40.1690686 -17.5070474  40.8845398  40.9440686
 -17.4350474  40.4985398  39.4820686   6.0239526  38.3755398  37.8850686
   6.3939526  39.1195398  38.3600686   6.5489526  38.3145398  37.0870686
  -4.0830474  42.0015398  32.8670686  -4.0510474  41.0875398  33.1510686
  -3.5730474  42.0185398  32.0570686  -8.2520474  40.1145398  34.8450686
  -7.6110474  40.0215398  35.5500686  -9.0190474  40.5005398  35.2680686
 -15.6990474  46.4765398  15.9030686 -16.2680474  47.2285398  16.0680686
 -14.9410474  46.6195398  16.4690686   7.2059526  46.6355398  21.9390686
   7.2829526  45.7215398  21.6640686   6.3839526  46.9345398  21.5510686
 -16.0010474  43.0405398  25.9880686 -16.4830474  43.5925398  25.3730686
 -16.6280474  42.8555398  26.6870686  -7.6590474  46.7495398  35.8500686
  -8.3730474  46.1165398  35.9210686  -7.1880474  46.6745398  36.6800686
  -7.4670474  38.6315398  23.7460686  -6.8020474  37.9815398  23.9750686
  -7.3220474  39.3505398  24.3600686 -17.7950474  42.4765398  37.3900686
 -18.7230474  42.6115398  37.1990686 -17.5610474  43.2005398  37.9700686
  -1.3680474  40.7495398  34.8230686  -1.7150474  40.5865398  33.9460686
  -1.4670474  39.9145398  35.2800686 -22.7430474  47.2785398  30.8880686
 -23.0270474  46.4755398  31.3240686 -22.9290474  47.9735398  31.5190686
 -19.3530474  45.6615398  36.5610686 -18.5530474  45.1425398  36.6450686
 -19.4990474  45.7255398  35.6170686   5.5229526  39.7875398  28.2890686
   5.4659526  38.8635398  28.5330686   5.4689526  40.2585398  29.1210686
  -7.0760474  41.7815398  12.0100686  -6.5170474  41.0055398  11.9720686
  -7.4210474  41.8725398  11.1220686 -22.0350474  41.8885398  34.4770686
 -22.3540474  41.0115398  34.2660686 -21.2720474  42.0095398  33.9110686
 -12.3910474  45.6485398  26.4440686 -12.3660474  44.7945398  26.8760686
 -12.7690474  45.4705398  25.5830686  -7.3520474  42.6595398  36.6320686
  -8.0470474  43.3175398  36.6430686  -7.1190474  42.5715398  35.7080686
 -13.5320474  46.5545398  38.7740686 -14.1080474  46.6475398  38.0150686
 -12.7230474  46.9965398  38.5170686 -14.9630474  45.5675398  30.2530686
 -14.9860474  44.6115398  30.2260686 -14.1230474  45.7765398  30.6630686
 -21.7880474  44.5245398  20.1580686 -22.2610474  44.7915398  19.3700686
 -20.9890474  45.0515398  20.1490686 -20.7420474  43.1475398  22.6070686
 -21.2180474  43.4885398  21.8500686 -21.0660474  43.6615398  23.3460686
  -9.0500474  45.2095398  12.9870686  -9.8420474  45.6725398  12.7110686
  -9.3590474  44.5645398  13.6230686  -9.8190474  43.5965398  15.1810686
  -9.2270474  43.5875398  15.9330686 -10.5120474  42.9785398  15.4140686
 -13.7430474  43.9085398  16.2650686 -14.0590474  44.1415398  15.3920686
 -13.4910474  42.9885398  16.1920686 -10.0540474  40.5225398  20.1250686
  -9.2760474  40.0265398  20.3810686 -10.2710474  41.0445398  20.8970686
  -2.8240474  41.5025398  11.9350686  -2.4770474  40.8185398  11.3620686
  -3.6850474  41.1785398  12.2000686   5.2669526  40.8925398  30.6680686
   4.4649526  40.6795398  31.1460686   5.5189526  41.7565398  30.9930686
 -21.9180474  38.4655398  36.2540686 -21.1330474  38.5365398  35.7110686
 -21.6680474  38.8595398  37.0900686 -12.4770474  39.9145398  26.2390686
 -12.3110474  39.9425398  27.1820686 -12.2020474  40.7745398  25.9220686
   3.4279526  46.9915398  25.2240686   3.0219526  47.8585398  25.2440686
   2.6899526  46.3815398  25.2170686 -19.7360474  39.0535398  15.0910686
 -18.7810474  39.1205398  15.0850686 -20.0320474  39.8785398  15.4750686
  -9.9590474  39.7755398  23.0520686  -9.3360474  39.0755398  23.2490686
 -10.8030474  39.4345398  23.3470686 -15.7100474  40.6555398  30.3140686
 -15.1580474  39.8895398  30.1570686 -16.4610474  40.3145398  30.8010686
   4.4429526  38.7805398  23.3500686   4.5999526  38.1435398  24.0470686
   5.0269526  39.5105398  23.5560686 -14.5520474  42.6485398  12.3770686
 -14.4610474  43.2915398  13.0800686 -15.3730474  42.1945398  12.5710686
 -19.4690474  44.6515398  12.4220686 -18.9070474  45.3185398  12.0270686
 -18.9340474  44.2695398  13.1180686 -22.7730474  42.0295398  16.3540686
 -22.9180474  41.1155398  16.1120686 -22.8370474  42.0375398  17.3090686
  -3.0060474  38.7615398  36.8320686  -3.6030474  38.5235398  37.5410686
  -2.6140474  39.5875398  37.1150686 -14.2140474  43.4065398  36.7360686
 -14.3440474  43.3055398  37.6790686 -14.9430474  43.9575398  36.4500686
 -17.8550474  39.4705398  38.1340686 -17.6730474  40.2795398  37.6570686
 -17.9860474  38.8135398  37.4500686 -14.4500474  41.0245398  35.4460686
 -14.8180474  40.2825398  35.9250686 -14.4410474  41.7395398  36.0820686
   3.8609526  42.1355398  33.2440686   3.8629526  41.3075398  33.7240686
   4.4449526  42.7045398  33.7440686 -12.9910474  42.0245398  32.3410686
 -13.7950474  41.9315398  32.8520686 -12.4010474  41.3605398  32.6970686
 -12.0650474  40.6615398  38.6460686 -12.9450474  40.4625398  38.3260686
 -12.1890474  40.8805398  39.5690686  -7.0310474  40.5745398  32.2160686
  -7.3950474  40.4265398  33.0890686  -6.1270474  40.2665398  32.2780686
  -8.3750474  41.8275398  39.2540686  -8.7380474  40.9585398  39.0780686
  -7.8560474  42.0315398  38.4760686  -9.8450474  40.0245398  30.5170686
  -8.9450474  40.0745398  30.8400686  -9.9700474  39.1015398  30.2970686
 -14.6570474  39.7375398  38.6600686 -15.3140474  39.8785398  39.3420686
 -14.7210474  38.8035398  38.4560686  -4.4230474  46.4985398  12.1240686
  -3.7100474  46.8525398  12.6550686  -4.8590474  47.2705398  11.7620686
   2.1839526  41.4835398  35.9210686   1.8499526  41.1645398  35.0830686
   2.7269526  40.7675398  36.2510686 -13.8240474  39.6465398  11.6920686
 -14.5080474  38.9765398  11.6680686 -14.2370474  40.4245398  11.3190686
 -17.4080474  38.6465398  31.4140686 -17.7580474  39.2735398  32.0470686
 -17.5460474  37.7915398  31.8230686  -8.2390474  46.2665398  15.8720686
  -7.5470474  46.1455398  15.2220686  -8.5100474  45.3775398  16.1010686
 -10.6670474  44.8165398  18.3940686  -9.8460474  44.3895398  18.1510686
 -11.3330474  44.3725398  17.8690686 -12.1360474  44.6815398  40.4830686
 -11.7890474  45.3595398  41.0620686 -12.7560474  45.1425398  39.9170686
  -3.5330474  46.0165398  23.3090686  -3.3460474  46.4495398  22.4760686
  -3.9300474  46.6985398  23.8510686   4.5689526  42.4645398  21.1700686
   4.4269526  42.7645398  20.2730686   4.8039526  41.5405398  21.0810686
   0.9319526  46.3815398  21.6500686   0.3549526  46.9555398  21.1470686
   1.5929526  46.0945398  21.0200686   1.2299526  39.8205398  21.4590686
   0.3139526  39.9395398  21.7090686   1.1999526  39.2125398  20.7210686
 -22.8490474  45.1985398  28.1000686 -22.1310474  45.8025398  28.2890686
 -23.1920474  45.4915398  27.2560686  -4.2870474  43.3605398  23.0250686
  -3.7170474  42.9535398  22.3720686  -3.9130474  44.2315398  23.1610686
   4.8509526  41.2555398  14.4660686   5.3059526  40.4885398  14.1180686
   4.1309526  41.4055398  13.8540686  -7.0400474  45.4875398  11.1770686
  -7.7070474  45.3225398  11.8440686  -6.4530474  46.1275398  11.5780686
   3.0299526  43.9065398  25.2850686   3.2489526  44.3095398  24.4450686
   2.8529526  42.9905398  25.0730686   2.5409526  45.4405398  16.0160686
   1.9759526  44.6775398  15.8950686   2.8539526  45.6495398  15.1350686
  -6.2020474  45.4765398  14.4030686  -5.7130474  45.9855398  13.7560686
  -6.1250474  44.5705398  14.1030686 -17.2940474  42.3865398  28.4790686
 -16.7800474  41.8855398  29.1110686 -17.8000474  41.7265398  28.0040686
   2.3869526  44.0875398  30.2560686   3.2619526  43.7525398  30.0600686
   2.0119526  44.2945398  29.4000686 -12.4020474  45.6055398  31.4310686
 -11.5620474  45.2635398  31.1230686 -12.2810474  45.7255398  32.3730686
   6.6229526  39.1705398  13.8930686   7.2859526  39.2335398  13.2060686
   6.2329526  38.3045398  13.7710686 -22.3510474  41.9075398  12.6230686
 -22.0060474  42.4125398  11.8870686 -23.2900474  41.8405398  12.4490686
  -4.8930474  45.4775398  37.7360686  -5.5840474  45.0315398  38.2250686
  -4.8100474  44.9755398  36.9250686   3.8329526  42.0845398  28.3790686
   3.5559526  42.5535398  27.5920686   3.1369526  41.4475398  28.5370686
  -3.0140474  46.2535398  39.7510686  -3.4540474  45.9885398  38.9430686
  -3.6360474  46.0395398  40.4450686  -1.6430474  39.2265398  19.1000686
  -1.5100474  39.5705398  19.9830686  -2.3180474  38.5555398  19.2040686
   1.2739526  42.9005398  39.7920686   1.0099526  43.4925398  39.0880686
   0.5249526  42.8885398  40.3890686   4.1109526  39.0855398  33.8730686
   3.2019526  38.8435398  33.6940686   4.5489526  38.2545398  34.0570686
   0.4529526  43.5155398  22.3320686   0.8549526  44.3515398  22.0940686
   1.1939526  42.9355398  22.5100686   2.0659526  39.4995398  30.6300686
   1.7629526  39.8675398  29.8000686   1.5659526  39.9685398  31.2980686
   3.4119526  45.9635398  34.4590686   3.3919526  45.2235398  35.0650686
   4.1949526  46.4555398  34.7070686 -22.8790474  44.8055398  17.8060686
 -23.4570474  44.3645398  17.1820686 -22.2010474  45.2075398  17.2620686
 -17.4990474  40.1095398  24.6180686 -16.5570474  40.0165398  24.4710686
 -17.7900474  40.7155398  23.9370686 -10.8690474  42.2595398  10.8260686
 -11.4610474  42.9825398  10.6190686 -10.1940474  42.3005398  10.1480686
   1.5499526  40.5575398  28.0830686   1.7879526  40.6545398  27.1610686
   1.0099526  39.7675398  28.1100686 -14.3600474  42.8695398  29.9450686
 -13.7530474  42.5665398  30.6210686 -15.0950474  42.2575398  29.9920686
   4.7639526  45.7005398  39.0100686   5.2829526  46.4745398  38.7900686
   4.6039526  45.2705398  38.1700686  -1.6760474  40.2005398  21.5670686
  -1.8530474  40.2185398  22.5070686  -1.8120474  41.1035398  21.2800686
  -0.7930474  44.6945398  26.9780686  -1.3340474  45.2885398  27.4980686
  -1.2290474  44.6545398  26.1270686   5.0849526  40.0145398  19.8130686
   4.7589526  39.2445398  20.2780686   4.6759526  39.9645398  18.9490686
 -20.2140474  42.5605398  32.3880686 -20.6040474  42.0575398  31.6730686
 -19.9100474  43.3685398  31.9730686 -10.7700474  45.9265398  22.7390686
  -9.8300474  45.9015398  22.5600686 -10.9430474  45.1205398  23.2250686
 -20.9430474  46.7225398  28.9440686 -20.0920474  47.1265398  29.1120686
 -21.5010474  47.0325398  29.6570686   4.5939526  44.4285398  23.1930686
   4.7249526  43.6035398  22.7250686   4.5229526  45.0875398  22.5020686
 -16.8440474  41.9755398  13.8520686 -17.1970474  42.8395398  14.0660686
 -17.5340474  41.5565398  13.3370686  -2.7470474  41.7195398  17.6910686
  -2.1210474  41.1535398  18.1440686  -3.4810474  41.8005398  18.2990686
  -0.7450474  46.2385398  19.1520686   0.1689526  45.9545398  19.1200686
  -0.7820474  46.9945398  18.5660686   4.2009526  46.3935398  21.2760686
   3.7599526  47.1305398  21.6990686   4.3759526  46.6985398  20.3850686
   1.5209526  46.7035398  10.6830686   2.0899526  47.3035398  10.2010686
   2.0399526  46.4395398  11.4430686  -2.4640474  44.1955398  16.4680686
  -2.2200474  43.4095398  16.9560686  -1.6290474  44.5705398  16.1850686
  -7.8390474  41.5805398  22.4900686  -6.9790474  41.1725398  22.3870686
  -8.3330474  40.9665398  23.0340686 -21.6550474  45.2815398  24.6800686
 -22.5430474  45.2085398  25.0270686 -21.3620474  46.1515398  24.9500686
   1.8779526  40.5855398  16.4160686   1.2739526  39.8425398  16.4290686
   2.7479526  40.1865398  16.4210686   1.5949526  42.2565398  18.8540686
   1.7559526  41.5965398  18.1800686   2.4589526  42.4335398  19.2280686
  -1.4890474  44.4295398  24.2430686  -2.1650474  44.9245398  23.7800686
  -0.8710474  44.1705398  23.5590686   4.3279526  43.4405398  18.5780686
   4.4809526  44.3615398  18.7910686   4.6509526  43.3455398  17.6820686
   0.3489526  38.9395398  24.7420686   0.7939526  38.2325398  24.2750686
   1.0389526  39.5755398  24.9290686  -6.6480474  44.1335398  22.3220686
  -5.7540474  43.8235398  22.4620686  -7.1830474  43.3405398  22.3430686
   2.3509526  40.9925398  25.6670686   3.2499526  40.6685398  25.7310686
   2.2029526  41.1055398  24.7280686   0.1109526  46.9045398  14.0220686
   0.3049526  47.8405398  13.9670686   0.5279526  46.6205398  14.8360686
  -4.5130474  40.2375398  15.0240686  -4.7380474  39.5025398  15.5940686
  -3.5570474  40.2775398  15.0510686  -3.0000474  46.8375398  20.5830686
  -3.0000474  47.7215398  20.2160686  -2.2960474  46.3855398  20.1200686
  -4.3650474  44.7055398  19.4630686  -4.2230474  44.7755398  18.5190686
  -4.0510474  45.5375398  19.8160686  -5.3270474  40.5875398  22.2160686
  -5.3740474  40.3955398  23.1530686  -5.4680474  39.7425398  21.7910686
   0.1779526  44.5155398  12.8030686   0.2079526  45.4335398  13.0720686
  -0.3330474  44.5185398  11.9940686   0.1829526  43.0515398  37.1340686
   0.8829526  42.6235398  36.6420686  -0.4540474  43.3115398  36.4690686
   7.0899526  41.7825398  19.2520686   6.3779526  41.1575398  19.3890686
   6.7139526  42.6305398  19.4860686 -14.9870474  39.3995398  17.5780686
 -14.5240474  39.8745398  18.2680686 -15.2980474  40.0825398  16.9840686
   3.1529526  44.6725398  13.3900686   3.8659526  44.9465398  12.8130686
   2.5659526  44.1715398  12.8240686   5.4559526  43.9375398  29.8180686
   5.8939526  44.4635398  29.1490686   5.1499526  43.1605398  29.3500686
  -9.2040474  39.2785398  39.3110686 -10.1010474  39.1455398  39.6160686
  -8.6650474  39.1625398  40.0940686  -1.9680474  42.8545398  28.2720686
  -2.3280474  42.3765398  27.5250686  -1.3860474  43.5065398  27.8810686
   1.2029526  40.2055398  38.6320686   1.8709526  39.9005398  38.0180686
   1.4959526  41.0795398  38.8900686 -22.2270474  42.9515398  37.0970686
 -22.0880474  42.8055398  36.1620686 -22.0330474  43.8795398  37.2270686
  -1.7160474  43.4705398  34.9250686  -2.5600474  43.7345398  35.2900686
  -1.6540474  42.5345398  35.1150686   3.6339526  44.0495398  36.4560686
   2.9109526  43.4365398  36.3230686   4.4129526  43.5645398  36.1830686
 -20.2610474  45.5425398  33.8470686 -19.9940474  46.3545398  33.4150686
 -20.8060474  45.0945398  33.1990686   4.0989526  46.2245398  31.4270686
   4.2539526  46.0375398  32.3530686   3.2649526  45.7955398  31.2330686
  -0.7230474  45.8195398  33.7510686  -0.2770474  45.7005398  32.9130686
  -0.9250474  44.9305398  34.0440686 -21.1960474  43.2185398  14.7440686
 -21.5170474  42.8015398  13.9440686 -21.8240474  42.9595398  15.4180686
   4.9789526  41.4095398  11.3060686   4.2289526  40.8365398  11.4670686
   4.6609526  42.2865398  11.5170686  -5.3210474  44.4155398  32.3820686
  -4.9830474  43.5215398  32.4320686  -4.6700474  44.8905398  31.8650686
  -4.2770474  42.2635398  38.2160686  -3.4640474  41.7655398  38.1310686
  -4.3240474  42.4905398  39.1450686  -2.8420474  45.0725398  31.1940686
  -2.4990474  44.2105398  30.9590686  -2.0630474  45.6075398  31.3460686
   6.5039526  41.6365398  26.5890686   6.3269526  40.8555398  27.1140686
   5.9969526  42.3295398  27.0130686  -5.0300474  46.0955398  34.6390686
  -5.1520474  45.1465398  34.6090686  -5.8940474  46.4415398  34.8650686
   6.9399526  41.0645398  39.2250686   6.4019526  41.3945398  39.9440686
   6.8099526  41.6965398  38.5180686   1.0909526  43.1775398  15.5880686
   0.9749526  42.9935398  14.6560686   1.3379526  42.3355398  15.9700686
   5.7879526  43.4515398  34.4900686   6.3189526  44.1355398  34.8990686
   6.3609526  42.6855398  34.4650686 -20.3930474  42.2615398  39.5110686
 -20.5700474  43.2005398  39.5540686 -20.9050474  41.9535398  38.7630686
   0.1869526  45.5645398  31.2490686   0.6619526  46.2605398  30.7950686
   0.6729526  44.7665398  31.0390686 -22.7890474  45.6445398  35.5530686
 -21.9090474  45.7785398  35.1990686 -23.2320474  46.4825398  35.4180686
  -1.6270474  42.6835398  20.7540686  -0.7390474  42.9015398  21.0370686
  -1.9530474  43.4875398  20.3480686 -16.8580474  44.5095398  23.5070686
 -16.1480474  44.3965398  22.8750686 -16.9300474  45.4565398  23.6210686
   1.2039526  42.1865398  31.6400686   1.6779526  42.9465398  31.3010686
   1.6319526  41.9895398  32.4730686  -9.1680474  44.9235398  26.1560686
  -8.6650474  45.3185398  25.4440686  -9.4820474  45.6685398  26.6690686
  -5.6940474  40.7125398  24.7800686  -5.4530474  40.1545398  25.5200686
  -5.9140474  41.5555398  25.1770686 -16.7340474  42.1165398  34.3780686
 -15.8780474  41.9045398  34.7510686 -17.2830474  42.3155398  35.1360686
   4.5639526  46.7665398  17.8940686   4.1689526  47.5265398  17.4660686
   4.5429526  46.0795398  17.2280686 -18.2710474  46.6765398  10.8780686
 -18.3600474  47.6125398  11.0570686 -17.3300474  46.5105398  10.9330686
 -19.3310474  43.7645398  25.2400686 -18.6230474  44.2175398  24.7810686
 -20.0630474  44.3815398  25.2210686  -8.5420474  47.0655398  31.0080686
  -8.4830474  48.0175398  31.0850686  -8.5120474  46.8985398  30.0660686
 -21.2000474  43.0295398  27.8790686 -21.6420474  42.5835398  27.1560686
 -21.8290474  43.6875398  28.1750686 -19.1240474  41.6095398  16.0580686
 -18.1700474  41.6865398  16.0910686 -19.4070474  42.3545398  15.5280686
  -3.3560474  38.5295398  27.7540686  -3.0580474  38.8195398  26.8920686
  -4.2300474  38.9075398  27.8460686  -6.6730474  41.0635398  17.5530686
  -6.4120474  40.1875398  17.2700686  -5.8530474  41.4905398  17.7990686
  -5.0550474  42.1195398  19.3400686  -4.8880474  43.0495398  19.4960686
  -5.2150474  41.7545398  20.2100686  -1.2110474  38.4825398  29.9230686
  -0.5990474  38.2685398  29.2180686  -1.9540474  38.8915398  29.4790686
  -1.7960474  40.5815398  15.2560686  -1.7990474  41.1305398  16.0410686
  -1.3490474  41.1105398  14.5950686   2.3189526  41.7175398  22.9270686
   1.9459526  41.1105398  22.2880686   3.1749526  41.9495398  22.5670686
   2.6059526  40.6115398  12.7910686   1.7869526  41.1045398  12.7460686
   2.3689526  39.7895398  13.2200686 -11.1150474  42.6515398  25.9830686
 -11.8520474  42.8575398  26.5590686 -10.4130474  43.2325398  26.2750686
  -6.8630474  43.0345398  26.2880686  -6.8290474  42.9805398  27.2430686
  -7.4570474  43.7645398  26.1110686   4.4469526  39.6505398  16.7840686
   4.7209526  40.1335398  16.0040686   5.1039526  38.9615398  16.8830686
 -22.7810474  38.7495398  16.6610686 -22.7760474  38.6775398  15.7060686
 -22.2360474  38.0215398  16.9590686  -5.1070474  39.9685398  12.5320686
  -5.0920474  39.7785398  13.4700686  -4.9140474  39.1285398  12.1140686
 -15.0640474  43.1245398  39.3480686 -14.6890474  43.2095398  40.2240686
 -15.5470474  42.2985398  39.3720686  -1.8180474  41.3175398  38.2350686
  -1.2810474  40.7365398  38.7740686  -1.2040474  41.9735398  37.9040686
   6.8289526  39.7205398  33.2440686   7.0619526  39.0685398  32.5830686
   5.8869526  39.6055398  33.3730686   3.7179526  43.6395398  40.6730686
   2.8939526  43.2425398  40.3910686   3.7129526  44.5095398  40.2740686
   3.2069526  39.1475398  37.0560686   2.9769526  38.5585398  36.3380686
   3.9999526  38.7675398  37.4340686 -19.1140474  41.1105398  12.0530686
 -19.7510474  41.5685398  11.5040686 -19.6410474  40.5245398  12.5950686
  -2.1720474  42.3725398  30.7640686  -2.0470474  42.4225398  29.8170686
  -1.3010474  42.5235398  31.1300686  -6.0740474  39.6805398  37.6070686
  -5.4340474  39.0655398  37.9670686  -5.7870474  40.5375398  37.9220686
   1.0479526  40.1375398  33.8790686   0.1739526  40.4165398  34.1540686
   1.0909526  39.2115398  34.1180686   6.4479526  44.9365398  32.2590686
   6.0589526  44.6415398  31.4360686   6.1159526  44.3235398  32.9150686
  -0.5940474  39.0735398  10.5370686  -0.0610474  38.7965398  11.2820686
   0.0419526  39.2875398   9.8540686 -20.8460474  40.9125398  30.1570686
 -20.8740474  41.5715398  29.4630686 -21.5180474  40.2765398  29.9120686
 -22.0410474  44.6875398  11.4220686 -21.7120474  45.1415398  10.6460686
 -21.2970474  44.6685398  12.0230686 -17.0310474  45.4395398  49.2180686
 -17.4960474  44.6425398  48.9650686 -17.0070474  45.9665398  48.4190686
   5.1269526  44.0335398  46.0660686   4.1869526  44.1535398  45.9300686
   5.3059526  43.1495398  45.7470686 -21.3210474  46.3385398  45.6550686
 -20.9970474  45.5505398  45.2200686 -20.5350474  46.7645398  45.9980686
  -7.7550474  39.1505398  49.3890686  -8.1450474  39.8985398  48.9370686
  -7.8200474  38.4305398  48.7620686 -14.5560474  44.8545398  44.0190686
 -13.8920474  45.3765398  43.5690686 -14.9220474  45.4475398  44.6760686
  -0.4550474  42.0755398  43.1810686  -1.2280474  42.0455398  42.6170686
  -0.1120474  42.9625398  43.0700686 -16.9030474  39.3505398  44.9800686
 -16.0540474  38.9415398  44.8110686 -16.7490474  40.2855398  44.8480686
 -13.4980474  47.1915398  47.0810686 -13.0090474  46.9255398  47.8600686
 -12.8910474  47.7525398  46.5980686 -10.7190474  41.4975398  47.1660686
 -10.3270474  41.9775398  47.8960686 -10.0840474  40.8105398  46.9610686
 -18.4200474  42.7855398  49.1280686 -19.0910474  42.1475398  49.3680686
 -18.1580474  42.5375398  48.2420686 -10.2940474  41.2125398  43.1630686
 -10.6620474  41.5825398  42.3610686  -9.6350474  41.8495398  43.4410686
 -12.7670474  47.0145398  43.4630686 -12.1100474  47.0755398  42.7700686
 -12.3160474  47.3235398  44.2490686 -14.4080474  42.6085398  49.1290686
 -14.0470474  42.9245398  48.3010686 -13.9290474  41.7985398  49.3060686
 -18.7380474  46.5105398  47.0750686 -19.3100474  46.8015398  47.7850686
 -18.5870474  47.2965398  46.5500686 -13.1380474  41.3545398  46.1580686
 -12.2890474  41.2055398  46.5760686 -13.1100474  40.8255398  45.3610686
  -3.9190474  46.8175398  46.4860686  -3.0010474  46.8485398  46.7570686
  -4.0650474  45.9055398  46.2370686  -9.4660474  39.0345398  45.6420686
  -8.6490474  39.0135398  46.1390686  -9.1920474  38.9805398  44.7260686
 -11.0490474  47.3415398  41.3350686 -11.4370474  48.1725398  41.0630686
 -10.1050474  47.4965398  41.3090686  -8.1780474  43.5005398  47.2530686
  -7.6220474  42.7245398  47.1840686  -7.6420474  44.1395398  47.7230686
  -4.9460474  43.2485398  40.8510686  -5.8580474  43.5165398  40.9670686
  -4.7120474  42.8295398  41.6800686 -16.5280474  42.3485398  46.7950686
 -16.0860474  42.6315398  47.5950686 -16.1330474  42.8785398  46.1020686
  -5.0530474  44.2675398  46.8370686  -4.1360474  44.0825398  46.6350686
  -5.5420474  43.8775398  46.1130686 -17.5340474  44.3215398  45.0570686
 -16.9720474  45.0635398  44.8340686 -17.7830474  44.4745398  45.9690686
  -5.8510474  42.7615398  44.2110686  -5.5870474  41.8985398  44.5300686
  -6.5770474  42.5835398  43.6120686   5.9209526  45.7425398  42.8050686
   5.9599526  45.4485398  43.7150686   6.6299526  45.2675398  42.3700686
 -12.7900474  40.2335398  43.9290686 -13.3400474  40.3045398  43.1480686
 -11.9360474  40.5645398  43.6510686 -15.6990474  46.4765398  45.9030686
 -16.2680474  47.2285398  46.0680686 -14.9410474  46.6195398  46.4690686
  -7.0760474  41.7815398  42.0100686  -6.5170474  41.0055398  41.9720686
  -7.4210474  41.8725398  41.1220686  -9.0500474  45.2095398  42.9870686
  -9.8420474  45.6725398  42.7110686  -9.3590474  44.5645398  43.6230686
  -9.8190474  43.5965398  45.1810686  -9.2270474  43.5875398  45.9330686
 -10.5120474  42.9785398  45.4140686 -13.7430474  43.9085398  46.2650686
 -14.0590474  44.1415398  45.3920686 -13.4910474  42.9885398  46.1920686
  -2.8240474  41.5025398  41.9350686  -2.4770474  40.8185398  41.3620686
  -3.6850474  41.1785398  42.2000686  -9.2660474  38.9135398  42.3640686
 -10.0470474  38.6905398  41.8580686  -9.2610474  39.8705398  42.3900686
 -19.7360474  39.0535398  45.0910686 -18.7810474  39.1205398  45.0850686
 -20.0320474  39.8785398  45.4750686 -14.5520474  42.6485398  42.3770686
 -14.4610474  43.2915398  43.0800686 -15.3730474  42.1945398  42.5710686
 -19.4690474  44.6515398  42.4220686 -18.9070474  45.3185398  42.0270686
 -18.9340474  44.2695398  43.1180686 -22.7730474  42.0295398  46.3540686
 -22.9180474  41.1155398  46.1120686 -22.8370474  42.0375398  47.3090686
  -4.4230474  46.4985398  42.1240686  -3.7100474  46.8525398  42.6550686
  -4.8590474  47.2705398  41.7620686 -13.8240474  39.6465398  41.6920686
 -14.5080474  38.9765398  41.6680686 -14.2370474  40.4245398  41.3190686
  -8.2390474  46.2665398  45.8720686  -7.5470474  46.1455398  45.2220686
  -8.5100474  45.3775398  46.1010686 -10.6670474  44.8165398  48.3940686
  -9.8460474  44.3895398  48.1510686 -11.3330474  44.3725398  47.8690686
   4.8509526  41.2555398  44.4660686   5.3059526  40.4885398  44.1180686
   4.1309526  41.4055398  43.8540686  -7.0400474  45.4875398  41.1770686
  -7.7070474  45.3225398  41.8440686  -6.4530474  46.1275398  41.5780686
   2.5409526  45.4405398  46.0160686   1.9759526  44.6775398  45.8950686
   2.8539526  45.6495398  45.1350686  -6.2020474  45.4765398  44.4030686
  -5.7130474  45.9855398  43.7560686  -6.1250474  44.5705398  44.1030686
   6.6229526  39.1705398  43.8930686   7.2859526  39.2335398  43.2060686
   6.2329526  38.3045398  43.7710686 -22.3510474  41.9075398  42.6230686
 -22.0060474  42.4125398  41.8870686 -23.2900474  41.8405398  42.4490686
 -22.8790474  44.8055398  47.8060686 -23.4570474  44.3645398  47.1820686
 -22.2010474  45.2075398  47.2620686 -10.8690474  42.2595398  40.8260686
 -11.4610474  42.9825398  40.6190686 -10.1940474  42.3005398  40.1480686
 -16.8440474  41.9755398  43.8520686 -17.1970474  42.8395398  44.0660686
 -17.5340474  41.5565398  43.3370686  -2.7470474  41.7195398  47.6910686
  -2.1210474  41.1535398  48.1440686  -3.4810474  41.8005398  48.2990686
  -0.7450474  46.2385398  49.1520686   0.1689526  45.9545398  49.1200686
  -0.7820474  46.9945398  48.5660686   1.5209526  46.7035398  40.6830686
   2.0899526  47.3035398  40.2010686   2.0399526  46.4395398  41.4430686
  -2.4640474  44.1955398  46.4680686  -2.2200474  43.4095398  46.9560686
  -1.6290474  44.5705398  46.1850686   1.8779526  40.5855398  46.4160686
   1.2739526  39.8425398  46.4290686   2.7479526  40.1865398  46.4210686
   4.3279526  43.4405398  48.5780686   4.4809526  44.3615398  48.7910686
   4.6509526  43.3455398  47.6820686   0.1109526  46.9045398  44.0220686
   0.3049526  47.8405398  43.9670686   0.5279526  46.6205398  44.8360686
  -4.5130474  40.2375398  45.0240686  -4.7380474  39.5025398  45.5940686
  -3.5570474  40.2775398  45.0510686   0.1779526  44.5155398  42.8030686
   0.2079526  45.4335398  43.0720686  -0.3330474  44.5185398  41.9940686
   7.0899526  41.7825398  49.2520686   6.3779526  41.1575398  49.3890686
   6.7139526  42.6305398  49.4860686 -14.9870474  39.3995398  47.5780686
 -14.5240474  39.8745398  48.2680686 -15.2980474  40.0825398  46.9840686
   3.1529526  44.6725398  43.3900686   3.8659526  44.9465398  42.8130686
   2.5659526  44.1715398  42.8240686 -21.1960474  43.2185398  44.7440686
 -21.5170474  42.8015398  43.9440686 -21.8240474  42.9595398  45.4180686
   4.9789526  41.4095398  41.3060686   4.2289526  40.8365398  41.4670686
   4.6609526  42.2865398  41.5170686   1.0909526  43.1775398  45.5880686
   0.9749526  42.9935398  44.6560686   1.3379526  42.3355398  45.9700686
   4.5639526  46.7665398  47.8940686   4.1689526  47.5265398  47.4660686
   4.5429526  46.0795398  47.2280686 -18.2710474  46.6765398  40.8780686
 -18.3600474  47.6125398  41.0570686 -17.3300474  46.5105398  40.9330686
 -19.1240474  41.6095398  46.0580686 -18.1700474  41.6865398  46.0910686
 -19.4070474  42.3545398  45.5280686  -6.6730474  41.0635398  47.5530686
  -6.4120474  40.1875398  47.2700686  -5.8530474  41.4905398  47.7990686
  -1.7960474  40.5815398  45.2560686  -1.7990474  41.1305398  46.0410686
  -1.3490474  41.1105398  44.5950686   2.6059526  40.6115398  42.7910686
   1.7869526  41.1045398  42.7460686   2.3689526  39.7895398  43.2200686
   4.4469526  39.6505398  46.7840686   4.7209526  40.1335398  46.0040686
   5.1039526  38.9615398  46.8830686 -22.7810474  38.7495398  46.6610686
 -22.7760474  38.6775398  45.7060686 -22.2360474  38.0215398  46.9590686
  -5.1070474  39.9685398  42.5320686  -5.0920474  39.7785398  43.4700686
  -4.9140474  39.1285398  42.1140686 -19.1140474  41.1105398  42.0530686
 -19.7510474  41.5685398  41.5040686 -19.6410474  40.5245398  42.5950686
  -0.5940474  39.0735398  40.5370686  -0.0610474  38.7965398  41.2820686
   0.0419526  39.2875398  39.8540686 -22.0410474  44.6875398  41.4220686
 -21.7120474  45.1415398  40.6460686 -21.2970474  44.6685398  42.0230686
  26.4919526  -4.5254602 -16.0209314  26.3969526  -5.4034602 -15.6509314
  25.7269526  -4.4204602 -16.5859314  28.3779526 -16.2664602  10.4480686
  27.6309526 -16.5754602  10.9610686  28.0099526 -15.6034602   9.8640686
  14.0539526   5.7445398 -15.3499314  13.3489526   5.1875398 -15.0199314
  14.0789526   6.4835398 -14.7419314  28.2149526 -20.3804602   2.2520686
  28.0549526 -21.2294602   1.8400686  28.7249526 -19.8914602   1.6060686
  18.9749526  -9.5614602  -7.4019314  18.3799526 -10.2844602  -7.2029314
  19.8469526  -9.9534602  -7.3739314  12.9689526 -14.5604602 -10.7819314
  12.5039526 -15.3574602 -11.0349314  12.9929526 -14.0334602 -11.5809314
  22.1949526  -3.7014602  -3.8779314  21.3839526  -3.8834602  -4.3529314
  22.8799526  -3.7574602  -4.5449314   7.7259526  -7.4564602 -10.9469314
   6.9029526  -7.1364602 -11.3189314   7.9989526  -8.1574602 -11.5379314
  25.9459526  -2.9164602 -10.1989314  25.5589526  -3.3574602  -9.4419314
  25.2389526  -2.3734602 -10.5469314  16.1539526 -12.8474602  -1.6569314
  15.5479526 -13.2804602  -1.0549314  16.4839526 -13.5534602  -2.2129314
  18.3159526 -10.1814602 -13.7789314  17.7319526  -9.7314602 -13.1689314
  18.7689526 -10.8324602 -13.2429314  24.5569526  -6.3024602  -1.5749314
  25.0379526  -6.3854602  -0.7509314  25.2219526  -6.4214602  -2.2529314
  29.1699526 -12.0254602 -13.1469314  29.0809526 -11.7914602 -14.0709314
  29.8289526 -11.4184602 -12.8089314  12.7049526  -7.8434602 -10.5329314
  12.8549526  -7.8124602  -9.5879314  11.8439526  -7.4434602 -10.6529314
  36.3979526  -2.5694602  -4.2809314  36.7379526  -1.9964602  -3.5929314
  36.9879526  -2.4314602  -5.0219314   9.6229526 -14.3664602   9.3640686
  10.3639526 -13.9544602   9.8100686   9.9529526 -14.5694602   8.4890686
  20.0209526   4.0225398  -5.2849314  20.9539526   3.8305398  -5.3739314
  19.6139526   3.5915398  -6.0359314  35.1269526 -15.9664602 -13.9339314
  34.1869526 -15.8464602 -14.0699314  35.3059526 -16.8504602 -14.2529314
  25.4529526  -0.1704602 -18.8019314  24.7989526   0.5195398 -18.9159314
  25.3689526  -0.7124602 -19.5859314  17.7749526  -5.5454602 -12.8179314
  18.2239526  -4.7044602 -12.7339314  16.9669526  -5.4364602 -12.3159314
  25.5219526 -16.6724602   5.5630686  25.2049526 -17.0154602   6.3980686
  25.4619526 -17.4134602   4.9600686  35.8899526 -11.5904602  -3.7099314
  34.9509526 -11.5294602  -3.8839314  35.9469526 -11.9334602  -2.8179314
   9.4789526  -0.7594602 -15.6369314  10.2719526  -0.2234602 -15.6359314
   9.7629526  -1.6094602 -15.3009314  25.0679526  -7.0734602  -8.8179314
  24.3419526  -7.1654602  -9.4349314  24.7939526  -7.5734602  -8.0489314
  20.6199526  -6.8514602 -18.9479314  19.9909526  -7.5524602 -18.7769314
  20.1679526  -6.2664602 -19.5559314  24.0229526   0.4985398  -6.1159314
  24.3679526   1.3745398  -6.2849314  24.7529526  -0.0894602  -6.3099314
  18.8499526   1.5885398 -10.9399314  18.7799526   2.3525398 -11.5109314
  19.1659526   0.8885398 -11.5119314  21.6209526   4.5195398 -17.5919314
  22.2449526   4.5135398 -18.3179314  22.0619526   4.0345398 -16.8939314
   8.6789526 -13.6614602 -14.3449314   9.0029526 -14.4494602 -14.7799314
   9.4649526 -13.2354602 -14.0019314  11.4679526 -19.8344602  -2.8449314
  10.5369526 -19.6974602  -3.0189314  11.8579526 -19.9584602  -3.7099314
  24.0679526  -7.1484602   8.9020686  24.9099526  -7.5464602   9.1230686
  24.2309526  -6.6834602   8.0810686  18.1089526 -19.3484602  -1.3369314
  17.8469526 -18.4274602  -1.3439314  18.7819526 -19.4014602  -0.6589314
  22.2449526 -20.8494602 -10.6109314  21.8549526 -20.1014602 -11.0629314
  22.1799526 -21.5694602 -11.2379314  22.5089526  -7.4944602  -6.3879314
  21.8999526  -7.5484602  -5.6509314  21.9579526  -7.2734602  -7.1389314
  13.9649526   5.3965398  -9.7249314  14.1819526   6.2795398  -9.4269314
  14.1069526   5.4205398 -10.6709314  19.3669526 -12.4534602   7.4770686
  18.9659526 -11.7024602   7.0410686  20.0759526 -12.0774602   7.9990686
  35.6249526  -5.9584602 -11.8399314  35.5389526  -5.3804602 -12.5979314
  35.2779526  -5.4484602 -11.1079314  15.4439526 -15.1454602 -15.9809314
  16.1079526 -14.6234602 -16.4309314  15.0779526 -14.5524602 -15.3239314
  31.4749526 -12.1184602  -2.1179314  31.8109526 -13.0114602  -2.1879314
  31.3809526 -11.9704602  -1.1769314  14.8839526  -7.7594602 -12.3909314
  14.2489526  -8.0204602 -11.7239314  15.4549526  -8.5214602 -12.4899314
  16.1759526 -18.7224602  -7.1819314  16.3559526 -18.2664602  -8.0039314
  16.8629526 -18.4234602  -6.5849314  22.9409526  -7.5364602 -10.4719314
  22.2549526  -6.9634602 -10.8139314  22.4919526  -8.3584602 -10.2749314
  29.5449526 -17.9244602 -16.8189314  28.7719526 -17.9544602 -17.3829314
  29.8879526 -17.0374602 -16.9299314  28.3189526  -1.0284602  -4.5359314
  27.9659526  -0.4914602  -3.8259314  29.0379526  -0.5084602  -4.8959314
  14.2979526 -13.3264602  10.3690686  14.4499526 -12.7874602  11.1450686
  15.1549526 -13.3884602   9.9480686  18.2819526   4.7675398 -17.9249314
  18.3409526   5.7175398 -17.8229314  18.7289526   4.4155398 -17.1559314
  11.7769526 -17.9184602  -7.1359314  10.9239526 -17.5794602  -7.4099314
  12.3209526 -17.1384602  -7.0289314  20.2369526  -9.2104602   7.5750686
  20.6639526  -9.4824602   6.7620686  20.9519526  -9.1254602   8.2050686
  18.4559526  -0.7124602  -6.5029314  18.4349526   0.0565398  -7.0739314
  19.3769526  -0.9714602  -6.4839314  22.6609526 -17.0274602   3.7250686
  23.2129526 -16.3864602   3.2770686  22.3569526 -17.6104602   3.0300686
  21.6229526  -2.0034602 -11.6759314  21.1109526  -2.5684602 -11.0979314
  20.9969526  -1.3494602 -11.9879314  12.0069526  -7.4494602 -13.4289314
  12.3329526  -8.2484602 -13.0139314  11.4859526  -7.0214602 -12.7499314
  19.0319526 -16.5984602  -1.0519314  19.9009526 -16.2124602  -1.1589314
  18.8559526 -16.5374602  -0.1129314  10.0899526   2.1915398 -14.4899314
   9.6499526   1.6015398 -13.8779314  10.8809526   1.7205398 -14.7519314
  16.4809526 -15.5314602  -5.9229314  15.5579526 -15.7084602  -5.7419314
  16.6349526 -15.9194602  -6.7839314  19.8169526 -16.7874602  -6.4479314
  20.6459526 -17.2534602  -6.5599314  19.4599526 -17.1284602  -5.6269314
  18.0089526  -6.0144602  -7.5819314  17.1609526  -6.4214602  -7.7579314
  17.8189526  -5.0774602  -7.5269314  18.3679526 -12.8774602 -10.1329314
  18.4309526 -13.5864602  -9.4919314  17.7629526 -12.2504602  -9.7389314
  14.4669526   7.2825398 -17.8029314  13.7709526   6.7575398 -18.1979314
  14.3769526   7.1305398 -16.8619314  22.7799526  -2.9224602 -14.9339314
  22.9569526  -2.9264602 -15.8739314  23.3379526  -3.6164602 -14.5819314
  13.0969526 -20.6494602 -15.0199314  13.9459526 -21.0584602 -15.1889314
  13.2509526 -19.7144602 -15.1519314  16.5019526 -12.8084602 -12.9189314
  16.9909526 -13.0744602 -12.1399314  17.1089526 -12.2474602 -13.4019314
  16.1629526 -11.4484602  -9.5039314  16.3989526 -11.2084602  -8.6079314
  15.2299526 -11.6594602  -9.4579314  15.7529526   1.5555398 -13.7559314
  16.2539526   1.1735398 -13.0349314  16.3949526   1.6805398 -14.4549314
  19.2809526 -18.5024602 -12.8339314  19.6729526 -18.0224602 -12.1039314
  19.9159526 -19.1894602 -13.0389314   9.8539526 -11.2084602  -3.5439314
   9.2879526 -10.7364602  -4.1549314   9.2479526 -11.6614602  -2.9569314
  10.8829526 -15.6004602  -0.9369314  11.6259526 -16.1354602  -1.2149314
  10.1319526 -15.9754602  -1.3979314  14.3549526 -16.0424602  -8.7129314
  13.7399526 -15.4644602  -9.1649314  14.7309526 -16.5834602  -9.4069314
  11.5799526 -17.2144602 -10.8719314  10.9089526 -17.8524602 -10.6319314
  11.8419526 -17.4624602 -11.7579314  25.2959526 -10.3324602  -8.3909314
  25.8799526 -10.3714602  -9.1479314  24.4189526 -10.4354602  -8.7579314
  19.7059526 -18.7874602 -16.8369314  19.3379526 -18.4174602 -17.6389314
  20.3649526 -18.1504602 -16.5589314  30.7689526  -2.2784602   6.1400686
  30.0349526  -2.5834602   6.6720686  31.1649526  -1.5764602   6.6570686
  20.6949526 -11.8364602 -16.3149314  21.1719526 -12.5834602 -15.9549314
  21.3109526 -11.1054602 -16.2519314  17.7709526 -10.2444602 -19.0079314
  18.0529526  -9.5644602 -19.6199314  17.6839526  -9.7904602 -18.1689314
  13.2879526   7.2565398 -12.0909314  12.7129526   7.7925398 -11.5459314
  14.0289526   7.8275398 -12.2939314  22.7289526 -14.9174602 -10.4959314
  22.7099526 -14.9174602  -9.5389314  23.6309526 -14.6834602 -10.7169314
  23.2529526  -1.2014602  -9.6419314  22.9869526  -1.4254602 -10.5329314
  22.8849526  -1.8984602  -9.0989314  25.9269526  -1.8404602  -5.7939314
  26.7429526  -1.7214602  -5.3089314  26.1329526  -1.5584602  -6.6849314
  29.2489526  -9.5484602 -10.7889314  29.2929526  -8.5974602 -10.8809314
  29.9079526  -9.8804602 -11.3989314   8.6659526 -19.6924602  -7.1039314
   8.7599526 -20.1314602  -7.9489314   8.8709526 -18.7754602  -7.2849314
  19.7209526  -8.3834602  -5.1489314  19.3529526  -8.1914602  -6.0119314
  20.0719526  -9.2704602  -5.2299314  17.2329526 -12.9854602 -16.5369314
  17.8899526 -12.9244602 -17.2299314  17.6839526 -12.6764602 -15.7509314
  17.0629526 -19.9084602 -10.3169314  17.9759526 -19.7454602 -10.5539314
  17.1059526 -20.2744602  -9.4339314  19.6059526 -12.1374602 -12.4389314
  20.0139526 -12.5734602 -13.1879314  19.7079526 -12.7564602 -11.7159314
  27.7719526  -6.9744602  -8.6249314  27.5599526  -6.5574602  -7.7899314
  26.9209526  -7.1734602  -9.0159314  25.3409526 -10.7164602   8.1140686
  25.0299526 -10.6564602   7.2110686  26.2889526 -10.6024602   8.0500686
  11.5599526 -14.5384602   1.6120686  11.4659526 -14.8124602   0.6990686
  11.5499526 -13.5824602   1.5780686  23.8889526 -12.6924602   2.4300686
  23.2159526 -13.2664602   2.0640686  24.4739526 -13.2814602   2.9060686
  24.4239526 -20.2144602  -2.1109314  24.2359526 -19.3644602  -1.7129314
  23.6819526 -20.7654602  -1.8629314  13.1759526  -6.6714602  -8.0399314
  12.5569526  -6.1524602  -8.5529314  13.0859526  -6.3374602  -7.1469314
  20.5309526  -5.3564602 -10.9789314  20.4689526  -5.5884602 -11.9049314
  19.8699526  -4.6754602 -10.8569314  15.5919526 -17.3914602 -10.8709314
  15.9529526 -17.0754602 -11.6989314  16.0709526 -18.2014602 -10.6939314
  11.2619526 -13.4894602 -12.9249314  10.6899526 -13.1984602 -12.2149314
  11.4129526 -12.7034602 -13.4499314  28.0209526 -13.4074602  -1.6299314
  27.5799526 -13.0894602  -0.8419314  28.3859526 -12.6204602  -2.0349314
  10.6369526   7.6655398  -5.0949314  10.5429526   7.2015398  -5.9269314
  11.1679526   8.4335398  -5.3069314  14.7359526  -5.9404602 -18.9219314
  15.2279526  -6.6234602 -18.4669314  15.2399526  -5.1404602 -18.7719314
  16.8619526 -18.6454602 -13.8419314  17.7109526 -18.7944602 -13.4239314
  16.8899526 -19.1744602 -14.6389314  20.0819526 -15.4504602   1.4220686
  20.3569526 -14.5364602   1.3510686  20.5449526 -15.7804602   2.1920686
  21.0819526 -11.5104602   9.6130686  21.8089526 -12.0704602   9.8850686
  21.4439526 -10.9754602   8.9060686  22.0969526 -14.4124602   8.5650686
  22.3219526 -14.4874602   9.4920686  21.2399526 -14.8324602   8.4910686
  26.8659526  -4.5084602 -12.6899314  26.7159526  -3.7334602 -13.2299314
  26.2199526  -4.4404602 -11.9869314  32.0169526  -6.2094602  -9.8959314
  32.4059526  -6.9424602  -9.4179314  32.4179526  -6.2484602 -10.7639314
  12.8319526  -9.9794602  -7.1969314  12.5999526  -9.7604602  -6.2939314
  13.6749526  -9.5494602  -7.3379314  36.1609526 -19.1614602  -5.9029314
  36.2799526 -18.8064602  -5.0219314  37.0499526 -19.3024602  -6.2279314
  22.4369526 -13.6674602  -5.9129314  22.5959526 -14.3874602  -6.5229314
  23.3099526 -13.4014602  -5.6239314  21.0319526   6.2175398  -8.2779314
  20.7019526   6.1075398  -7.3859314  20.3029526   6.6135398  -8.7559314
   9.5659526  -8.0964602  -7.9659314  10.0569526  -8.2114602  -7.1519314
   9.4829526  -7.1474602  -8.0629314  11.1709526 -10.5574602  -9.2919314
  10.4479526  -9.9464602  -9.1549314  11.7769526 -10.3774602  -8.5719314
   9.5599526 -19.2604602  -9.9969314   9.0109526 -18.5224602 -10.2639314
   8.9719526 -20.0154602 -10.0159314  10.1099526  -5.4394602  -7.8869314
  10.0649526  -5.3694602  -6.9329314  10.1989526  -4.5354602  -8.1899314
  19.6639526  -7.3384602  -2.7419314  19.7779526  -7.7844602  -3.5819314
  20.4829526  -6.8604602  -2.6109314  22.8009526  -9.4664602   8.5420686
  23.6379526  -9.9264602   8.6150686  23.0029526  -8.5624602   8.7840686
  16.5849526  -5.5984602 -15.6089314  16.8559526  -5.7304602 -14.6999314
  16.9959526  -4.7724602 -15.8639314  15.1099526 -20.4784602  -5.4199314
  15.2769526 -19.7254602  -5.9869314  15.6749526 -20.3354602  -4.6589314
  19.4199526   1.9095398 -15.4509314  18.6609526   1.3935398 -15.7219314
  20.1649526   1.4765398 -15.8669314  10.9459526   6.7375398 -13.3729314
  10.6229526   7.5925398 -13.6579314  11.8299526   6.9095398 -13.0509314
  26.0809526 -13.1824602 -13.5139314  26.9989526 -13.1514602 -13.2429314
  25.9349526 -14.0944602 -13.7629314  12.8929526  -5.4514602 -15.1709314
  13.6849526  -5.8874602 -15.4849314  12.7079526  -5.8684602 -14.3289314
  22.7249526  -9.8784602 -15.7599314  23.5449526 -10.3554602 -15.6369314
  22.5539526  -9.4704602 -14.9099314  20.7109526  -6.4714602  -8.2269314
  19.9259526  -6.1594602  -7.7769314  20.5909526  -6.1984602  -9.1359314
  15.9779526  -1.1134602 -17.8839314  15.3729526  -1.7514602 -17.5059314
  15.8619526  -0.3274602 -17.3499314  20.5339526 -20.9654602 -14.3579314
  21.3509526 -20.9864602 -13.8609314  20.8079526 -21.0194602 -15.2739314
  15.2209526  -4.2074602  -9.7989314  15.2019526  -3.2894602 -10.0719314
  15.0869526  -4.1784602  -8.8519314  18.9509526 -12.6584602 -18.6649314
  18.5629526 -11.8274602 -18.9369314  19.8949526 -12.5034602 -18.6909314
  21.1449526  -0.8234602   0.3820686  20.2719526  -1.0094602   0.7260686
  21.2039526  -1.3484602  -0.4169314  15.8719526  -6.7024602  -8.9709314
  14.9889526  -6.8574602  -8.6339314  15.8199526  -5.8434602  -9.3909314
  32.8659526  -5.9524602  -3.8879314  33.6849526  -6.0774602  -4.3669314
  32.9209526  -6.5654602  -3.1549314  21.8219526 -16.4994602 -12.7469314
  22.3779526 -17.2754602 -12.8159314  22.3579526 -15.8604602 -12.2769314
  21.8919526  -6.0364602  -2.6219314  22.0029526  -5.2284602  -3.1229314
  22.7629526  -6.2234602  -2.2719314  25.8959526  -2.8844602  10.0590686
  26.2639526  -3.7664602  10.0080686  26.5879526  -2.3154602   9.7220686
  34.5429526  -9.0484602  -6.8319314  34.0579526  -9.8684602  -6.7449314
  35.4059526  -9.3124602  -7.1509314  26.8939526 -10.5764602 -10.6639314
  27.7969526 -10.2674602 -10.7419314  26.3789526  -9.9404602 -11.1609314
  20.7659526  -9.4894602 -11.1719314  20.0479526  -9.0824602 -10.6859314
  20.4809526 -10.3924602 -11.3089314  11.5219526 -21.5594602 -10.3309314
  12.0439526 -21.2004602  -9.6139314  10.7979526 -20.9414602 -10.4339314
  10.2879526  -6.2424602 -11.4879314   9.6899526  -6.1154602 -12.2239314
   9.8159526  -6.8224602 -10.8919314  20.5819526 -11.2814602  -4.0619314
  21.2079526 -10.5674602  -3.9419314  21.1009526 -11.9944602  -4.4369314
  35.8919526 -14.7774602  -4.3659314  35.6849526 -15.1894602  -5.2039314
  35.0679526 -14.3784602  -4.0849314   9.2839526 -19.0964602  -4.4629314
   9.0759526 -19.5144602  -5.2989314   9.8489526 -18.3594602  -4.6979314
  27.4439526 -20.3374602  -5.0889314  28.3349526 -20.4644602  -5.4149314
  27.4179526 -19.4204602  -4.8139314  20.0429526  -3.3384602 -14.7719314
  19.9159526  -3.0514602 -13.8679314  20.9759526  -3.2024602 -14.9379314
  18.2979526  -8.2984602  -9.8519314  18.5829526  -8.3434602  -8.9399314
  17.5589526  -7.6904602  -9.8429314  12.3789526  -4.9324602 -18.2389314
  13.2879526  -5.1284602 -18.0099314  12.1849526  -5.5184602 -18.9699314
  13.0509526 -20.2334602  -8.6439314  13.7989526 -19.6384602  -8.5999314
  12.2919526 -19.6794602  -8.4599314  21.1269526 -12.2274602  -9.4509314
  20.1759526 -12.3014602  -9.5329314  21.4669526 -13.0104602  -9.8849314
  20.9309526  -5.5364602   0.4320686  20.4729526  -5.9234602  -0.3139314
  21.2429526  -4.6904602   0.1080686  25.0159526  -7.6344602  -5.3429314
  24.0629526  -7.6144602  -5.2629314  25.3349526  -7.3854602  -4.4749314
  25.0539526 -16.7514602 -19.1489314  24.1419526 -16.4834602 -19.0329314
  25.2879526 -17.1704602 -18.3199314  13.1719526  -9.7734602 -16.3569314
  12.3519526  -9.2804602 -16.3939314  13.8099526  -9.1514602 -16.0079314
  27.8749526  -9.5694602  -1.8819314  28.4209526 -10.2824602  -2.2129314
  28.0009526  -8.8584602  -2.5109314  23.1859526 -10.7824602  -9.9009314
  22.3969526 -11.1714602  -9.5239314  23.4229526 -11.3674602 -10.6199314
  18.9699526  -9.5884602 -16.3429314  18.6859526  -9.5664602 -15.4299314
  19.3739526 -10.4494602 -16.4489314  23.8919526  -0.9624602  -3.5139314
  24.6309526  -1.5564602  -3.6449314  23.8099526  -0.4934602  -4.3449314
  13.4719526 -17.6514602 -13.2049314  13.9139526 -17.3684602 -12.4049314
  13.8669526 -17.1214602 -13.8979314  24.9119526 -10.8584602   5.2310686
  24.1409526 -11.3214602   4.9030686  25.6489526 -11.2744602   4.7850686
  28.0829526  -4.7124602 -17.9969314  28.4399526  -3.8384602 -18.1559314
  27.4949526  -4.5994602 -17.2509314  34.2429526  -8.4424602  -2.9529314
  34.5909526  -9.0284602  -2.2809314  33.5609526  -8.9544602  -3.3879314
  35.5719526 -10.5944602  -9.8419314  35.9859526 -10.3544602  -9.0129314
  35.9919526 -10.0314602 -10.4919314  21.9889526   5.0395398 -10.6159314
  21.9259526   5.2955398  -9.6949314  21.9369526   4.0835398 -10.6029314
  13.5219526 -12.2884602  -9.8149314  12.7439526 -11.7334602  -9.8719314
  13.2829526 -13.0864602 -10.2869314  25.0639526 -11.3334602 -15.1429314
  25.6539526 -10.5894602 -15.0179314  25.3159526 -11.9564602 -14.4619314
  21.6539526 -10.1974602  -6.9779314  22.4029526  -9.6074602  -7.0669314
  21.9319526 -11.0044602  -7.4119314  17.6229526 -16.6924602  -8.3979314
  17.5369526 -16.0214602  -9.0759314  18.4699526 -16.5144602  -7.9899314
  15.0919526  -7.7284602 -15.1959314  15.7739526  -7.1144602 -15.4669314
  15.0159526  -7.6014602 -14.2499314  15.5959526   8.0205398 -14.7629314
  16.3499526   8.2865398 -15.2899314  15.7519526   8.4165398 -13.9059314
  11.1279526   5.7265398  -9.5299314  12.0629526   5.5185398  -9.5279314
  11.0899526   6.6575398  -9.7479314  24.9469526 -15.7324602 -13.1629314
  25.8639526 -15.9174602 -13.3649314  24.4579526 -16.1224602 -13.8869314
  31.9109526 -14.0994602 -10.8729314  32.0209526 -14.7984602 -11.5179314
  32.5889526 -13.4614602 -11.0929314  16.7399526  -9.6874602 -11.6069314
  17.4939526  -9.2514602 -11.2099314  16.3679526 -10.2154602 -10.9009314
  24.9309526 -10.1964602   1.5900686  24.6679526 -11.0324602   1.9740686
  24.1139526  -9.7064602   1.4970686  23.4969526 -17.9004602  -0.4349314
  24.1999526 -17.2504602  -0.4379314  23.2869526 -18.0224602   0.4910686
  18.7349526 -13.4024602   4.1240686  19.0099526 -14.0354602   4.7880686
  19.0209526 -12.5564602   4.4680686  25.4289526 -12.8934602  -2.4669314
  25.2849526 -12.0784602  -1.9859314  26.3449526 -13.1134602  -2.2979314
  14.9139526 -11.8244602 -17.5809314  15.7889526 -12.1344602 -17.3489314
  14.4599526 -11.7354602 -16.7429314  14.5569526 -11.9754602   7.0060686
  14.1689526 -11.3784602   7.6460686  14.9589526 -11.4014602   6.3550686
  20.5779526 -13.1694602  -1.7009314  19.6619526 -13.0564602  -1.4449314
  20.8079526 -12.3494602  -2.1379314  34.2229526  -8.0394602 -12.9069314
  33.3029526  -7.8054602 -13.0289314  34.6209526  -7.2554602 -12.5289314
  22.7889526  -7.8834602   2.0260686  22.0189526  -7.3174602   1.9700686
  22.8349526  -8.1354602   2.9480686  12.4659526 -15.6784602 -14.9429314
  13.0279526 -14.9364602 -15.1659314  12.2169526 -15.5254602 -14.0309314
  28.5899526  -0.6384602   2.1800686  28.6199526   0.3155398   2.1060686
  28.3069526  -0.9364602   1.3160686  23.2889526  -8.7454602   4.8440686
  24.0419526  -9.1484602   5.2760686  22.5979526  -9.4064602   4.9000686
  27.3979526  -8.8474602   2.0370686  26.6559526  -8.8224602   2.6400686
  27.1239526  -8.3064602   1.2960686  30.6769526 -10.2534602 -16.1419314
  29.7849526  -9.9074602 -16.1599314  31.2019526  -9.5854602 -16.5829314
  25.5069526  -6.7584602   1.2430686  25.9299526  -6.3374602   1.9920686
  24.6149526  -6.9374602   1.5410686  22.0659526  -6.3644602   4.4720686
  22.7209526  -5.8104602   4.0470686  22.5769526  -7.0314602   4.9300686
  27.2169526  -4.1154602  -2.2259314  27.9469526  -3.5124602  -2.3649314
  27.3549526  -4.4604602  -1.3439314  24.8129526 -12.5144602  -4.9519314
  25.2979526 -11.6894602  -4.9499314  24.8529526 -12.8184602  -4.0449314
  24.1489526 -17.2384602 -15.7889314  24.4129526 -18.1014602 -15.4699314
  23.4229526 -17.4164602 -16.3879314  19.2329526  -8.4794602   3.9980686
  19.8859526  -8.3724602   3.3060686  18.9179526  -7.5924602   4.1700686
  16.3899526 -16.7804602  -2.8039314  15.5679526 -16.7634602  -3.2939314
  16.1209526 -16.8194602  -1.8859314  17.3749526 -11.6424602  -6.8849314
  17.9309526 -12.4144602  -6.9929314  17.2729526 -11.5514602  -5.9369314
  18.6099526 -10.8744602   5.1500686  18.8649526 -10.0414602   4.7520686
  17.8439526 -11.1544602   4.6490686  35.9209526 -14.2574602 -17.1949314
  35.9599526 -14.5514602 -16.2849314  36.6299526 -14.7324602 -17.6299314
  19.9219526 -15.4334602   6.3730686  19.3119526 -14.7294602   6.5910686
  19.3799526 -16.0974602   5.9470686  29.1639526 -12.1424602  10.0010686
  30.0499526 -12.5024602   9.9480686  28.5899526 -12.8974602   9.8760686
  24.9269526 -15.7284602  -1.1309314  25.8299526 -15.9094602  -1.3939314
  24.8759526 -14.7734602  -1.0879314  22.9859526  -2.1224602   5.3830686
  22.6779526  -2.6914602   6.0880686  23.9399526  -2.1394602   5.4600686
  19.3999526  -3.6914602  -1.0079314  18.6899526  -3.7424602  -1.6479314
  20.0499526  -3.1194602  -1.4159314  28.6669526 -11.4364602  -5.9249314
  27.8919526 -11.0144602  -5.5539314  28.7899526 -11.0104602  -6.7729314
  21.7699526   7.7095398   7.2180686  22.4629526   8.2425398   6.8270686
  21.4279526   8.2475398   7.9320686  12.7639526   2.0905398 -19.4009314
  13.1849526   2.3395398 -18.5779314  13.4739526   1.7355398 -19.9349314
  10.1179526  -3.2614602 -18.0499314  10.2469526  -2.3134602 -18.0209314
  10.9629526  -3.6104602 -18.3309314  12.7539526 -13.3544602  -1.2309314
  13.3529526 -13.6504602  -0.5449314  12.2789526 -14.1434602  -1.4909314
  13.0009526 -15.2654602   3.6930686  12.9539526 -16.2214602   3.6780686
  12.3479526 -14.9824602   3.0540686  10.6449526  -8.7474602 -16.2079314
   9.8119526  -9.1154602 -15.9109314  10.5519526  -7.8044602 -16.0719314
  19.1699526 -19.2414602   6.1720686  18.9849526 -19.1874602   7.1090686
  18.7649526 -18.4574602   5.8010686  27.2059526 -17.6924602  -4.4559314
  27.6979526 -17.0284602  -4.9389314  26.3539526 -17.7234602  -4.8909314
  12.7859526 -14.9684602   8.4820686  13.3629526 -14.7454602   7.7520686
  13.3199526 -14.8224602   9.2630686  16.1129526 -11.4294602   3.9200686
  15.4549526 -10.8364602   4.2830686  15.6269526 -12.2254602   3.7040686
   9.7259526 -12.3414602  -6.8279314   9.2149526 -11.7204602  -6.3099314
   9.0739526 -12.9224602  -7.2179314  17.2099526 -19.7664602 -16.0709314
  16.6599526 -19.6954602 -16.8519314  18.0639526 -19.4354602 -16.3489314
  22.6469526   4.0205398   6.8030686  21.9119526   3.4675398   6.5390686
  23.1799526   4.1045398   6.0120686  14.2449526 -14.3894602   6.0580686
  13.7639526 -14.5034602   5.2390686  14.3639526 -13.4434602   6.1370686
  21.4009526 -10.7094602   5.5170686  20.5629526 -10.8434602   5.0750686
  21.6999526 -11.5914602   5.7370686  31.8579526 -15.4594602  -2.3369314
  30.9189526 -15.4994602  -2.5189314  32.2719526 -15.7884602  -3.1349314
  23.3949526  -3.6834602  -0.8329314  23.5599526  -2.9954602  -1.4789314
  23.7569526  -4.4754602  -1.2289314  18.5129526 -20.1154602   2.8810686
  18.8879526 -20.2344602   3.7540686  19.2629526 -19.9094602   2.3230686
  11.4639526 -19.4944602   3.1090686  12.1349526 -18.9424602   3.5120686
  10.8439526 -18.8754602   2.7250686  14.8919526  -4.9854602 -12.4189314
  14.7049526  -5.9154602 -12.2939314  14.9229526  -4.6244602 -11.5329314
   8.8649526 -20.9034602   9.4530686   9.6649526 -20.4574602   9.7310686
   8.1979526 -20.2164602   9.4450686  19.8209526  -9.3154602  -0.5249314
  19.3189526 -10.1054602  -0.7219314  19.7419526  -8.7784602  -1.3139314
  17.9019526 -17.0194602   5.2230686  17.0029526 -16.9564602   5.5460686
  17.8119526 -17.0654602   4.2710686  14.5009526 -13.2824602   3.0560686
  14.0939526 -14.1404602   3.1740686  13.9879526 -12.8664602   2.3630686
  13.0489526 -19.0434602  10.1690686  12.4929526 -19.1154602  10.9440686
  12.5649526 -19.5014602   9.4820686  36.0239526 -21.6244602   7.8850686
  36.3939526 -20.8804602   8.3600686  36.5489526 -21.6854602   7.0870686
  25.9169526 -17.9984602   2.8670686  25.9489526 -18.9124602   3.1510686
  26.4269526 -17.9814602   2.0570686  20.1239526  -7.1274602 -16.2419314
  20.5199526  -6.8524602 -17.0679314  19.6919526  -7.9564602 -16.4469314
  21.7479526 -19.8854602   4.8450686  22.3889526 -19.9784602   5.5500686
  20.9809526 -19.4994602   5.2680686  14.3009526 -13.5234602 -14.0969314
  13.7319526 -12.7714602 -13.9319314  15.0589526 -13.3804602 -13.5309314
  37.2059526 -13.3644602  -8.0609314  37.2829526 -14.2784602  -8.3359314
  36.3839526 -13.0654602  -8.4489314  28.1549526 -11.8894602 -17.4689314
  28.6229526 -12.5124602 -16.9139314  28.6349526 -11.8984602 -18.2979314
  11.9849526  -2.6764602 -12.9919314  12.3819526  -1.8314602 -12.7789314
  12.4989526  -3.0034602 -13.7299314   7.9679526   7.6035398 -18.2659314
   8.2679526   8.1155398 -19.0169314   8.1279526   6.6935398 -18.5159314
  13.9989526 -16.9594602  -4.0119314  13.5169526 -16.4074602  -4.6269314
  13.3719526 -17.1444602  -3.3129314  22.3409526 -13.2504602   5.8500686
  21.6269526 -13.8834602   5.9210686  22.8119526 -13.3254602   6.6800686
  23.2419526  -4.6944602 -12.5699314  22.5369526  -4.9884602 -13.1479314
  22.7999526  -4.4524602 -11.7559314  22.5329526 -21.3684602  -6.2539314
  23.1979526 -22.0184602  -6.0249314  22.6779526 -20.6494602  -5.6399314
  31.1169526  -2.1494602   1.9270686  31.3749526  -3.0334602   2.1890686
  30.2619526  -2.0174602   2.3380686  21.4859526  -3.3344602  -8.7429314
  21.4609526  -3.3864602  -7.7879314  21.3769526  -4.2404602  -9.0349314
  12.2049526 -17.5234602   7.3900686  11.2769526 -17.3884602   7.1990686
  12.4389526 -16.7994602   7.9700686  28.6319526 -19.2504602   4.8230686
  28.2849526 -19.4134602   3.9460686  28.5329526 -20.0854602   5.2800686
  21.7229526   1.6135398  -9.3169314  21.9109526   2.0785398 -10.1329314
  21.8459526   0.6895398  -9.5339314  22.4059526  -9.4744602  -3.1489314
  22.0249526  -8.7164602  -2.7049314  23.2629526  -9.5874602  -2.7379314
  29.3829526  -3.7184602   4.3250686  29.2729526  -4.5034602   4.8620686
  29.8059526  -3.0874602   4.9060686  16.8059526  -4.2654602 -18.8389314
  17.5709526  -4.6404602 -19.2749314  17.1679526  -3.7684602 -18.1049314
   7.2569526 -12.7214602   0.8880686   6.9729526 -13.5244602   1.3240686
   7.0709526 -12.0264602   1.5190686  18.4549526 -11.5994602  -0.7279314
  17.8409526 -12.2574602  -1.0529314  18.3029526 -11.5744602   0.2170686
  21.4769526  -0.5944602 -18.4319314  20.6069526  -0.3094602 -18.7109314
  21.9389526  -0.7884602 -19.2469314  17.8669526 -11.5624602  -4.1279314
  18.7999526 -11.3694602  -4.2219314  17.8369526 -12.3404602  -3.5719314
  10.6469526 -14.3384602   6.5610686  11.4469526 -14.8574602   6.6450686
  10.5009526 -14.2744602   5.6170686  26.9179526  -5.7804602  -6.3959314
  27.6769526  -5.8284602  -5.8149314  26.3839526  -6.5384602  -6.1569314
  35.5229526 -20.2124602  -1.7109314  35.4659526 -21.1364602  -1.4669314
  35.4689526 -19.7414602  -0.8789314  24.0529526  -4.9154602   3.1470686
  23.8969526  -3.9924602   3.3480686  24.9529526  -4.9414602   2.8230686
  34.0199526  -9.6214602 -17.6219314  34.0109526  -9.0464602 -16.8559314
  34.7239526 -10.2454602 -17.4469314  22.9239526 -18.2184602 -17.9899314
  23.4829526 -18.9944602 -18.0279314  22.5789526 -18.1274602 -18.8779314
   7.9649526 -18.1114602   4.4770686   7.6459526 -18.9884602   4.2660686
   8.7279526 -17.9904602   3.9110686  20.9829526  -1.8094602  -2.2329314
  20.9099526  -1.0044602  -2.7459314  21.7949526  -2.2154602  -2.5379314
  17.6089526 -14.3514602  -3.5559314  17.6339526 -15.2054602  -3.1239314
  17.2309526 -14.5294602  -4.4169314  23.0009526   6.1155398   1.4470686
  22.5509526   5.4175398   0.9710686  22.3879526   6.3695398   2.1360686
  22.6479526 -17.3404602   6.6320686  21.9529526 -16.6824602   6.6430686
  22.8809526 -17.4284602   5.7080686  24.7269526   8.5445398   3.1680686
  24.5179526   7.8445398   2.5500686  24.3979526   8.2275398   4.0090686
  16.4679526 -13.4454602   8.7740686  15.8919526 -13.3524602   8.0150686
  17.2769526 -13.0034602   8.5170686  15.0369526 -14.4324602   0.2530686
  15.0139526 -15.3884602   0.2260686  15.8769526 -14.2234602   0.6630686
  23.9889526   8.4145398 -13.8049314  23.8399526   7.6795398 -13.2089314
  23.7059526   8.0905398 -14.6599314  16.9199526   5.6995398 -14.0819314
  16.0229526   5.9175398 -14.3359314  17.4579526   6.0135398 -14.8089314
  25.5189526   7.8665398   8.8460686  25.0329526   7.0485398   8.7430686
  25.8199526   7.8545398   9.7550686   8.2119526 -15.4754602  -9.8419314
   7.7389526 -15.2084602 -10.6299314   9.0109526 -14.9484602  -9.8509314
  18.1769526   4.1775398 -12.1579314  17.9839526   4.6595398 -11.3549314
  17.8499526   4.7405398 -12.8599314   9.7649526  -2.7464602  -8.5069314
  10.2739526  -2.1994602  -7.9089314  10.1449526  -2.5764602  -9.3689314
  21.0569526  -5.9974602 -13.6919314  21.2079526  -6.9354602 -13.8059314
  20.4729526  -5.7594602 -14.4119314   9.2579526 -16.8524602  -7.3929314
   8.7819526 -16.5114602  -8.1499314   8.9339526 -16.3384602  -6.6539314
  16.8119526   6.5405398 -10.8669314  16.5119526   6.5325398 -11.7749314
  16.2369526   7.1685398 -10.4299314  35.1429526   4.3605398  -7.2779314
  35.3389526   5.2015398  -6.8649314  34.1889526   4.3485398  -7.3579314
  20.9499526 -14.7904602 -17.0129314  20.1579526 -14.3274602 -17.2889314
  20.6409526 -15.4354602 -16.3769314  17.5959526  -1.6624602 -13.3729314
  16.9459526  -2.0154602 -13.9799314  17.0849526  -1.1514602 -12.7449314
  20.1809526 -16.4034602 -14.8189314  20.7729526 -16.4124602 -14.0669314
  19.4879526 -17.0214602 -14.5859314   7.1279526  -0.0514602 -14.7839314
   8.0209526  -0.3744602 -14.8999314   6.5799526  -0.6924602 -15.2379314
  22.8509526   4.3525398 -14.7369314  22.7309526   3.5705398 -15.2769314
  22.0099526   4.4695398 -14.2939314  21.3079526  -1.2004602  -6.2919314
  21.5509526  -0.3134602  -6.5579314  22.1349526  -1.6104602  -6.0379314
  24.6979526  -0.0574602   1.9670686  24.2029526   0.6695398   2.3450686
  24.2949526  -0.8414602   2.3400686  12.8879526  -0.1324602 -12.7179314
  13.5439526   0.2505398 -12.1359314  12.0719526  -0.0944602 -12.2189314
  37.0989526   0.4125398  10.3730686  36.4039526   0.4905398  11.0270686
  37.0339526  -0.4884602  10.0590686  24.5749526   6.1425398 -11.7429314
  23.7289526   5.7595398 -11.5129314  24.9619526   5.5195398 -12.3579314
   9.3999526  -2.7424602 -13.9589314   8.7529526  -2.9034602 -13.2709314
  10.2449526  -2.8774602 -13.5299314  21.3959526   7.2525398 -12.1109314
  21.8459526   6.6175398 -11.5549314  21.0569526   6.7345398 -12.8409314
  31.4089526   3.1865398  -5.3769314  31.9869526   2.4535398  -5.5849314
  31.6389526   3.8625398  -6.0149314  13.5859526  -2.6254602 -17.1029314
  12.9939526  -2.0104602 -17.5359314  13.0869526  -3.4404602 -17.0479314
  23.5269526  -2.4624602   1.7600686  23.5939526  -3.1734602   1.1230686
  22.7839526  -1.9394602   1.4590686  14.3549526   1.5595398 -16.0909314
  14.6629526   2.3225398 -16.5789314  14.7359526   1.6625398 -15.2189314
  22.5349526   3.5715398  -5.4689314  23.3359526   3.6815398  -5.9809314
  22.1709526   2.7385398  -5.7689314  16.2569526 -16.0914602 -13.7349314
  15.9409526 -15.8584602 -14.6079314  16.5089526 -17.0114602 -13.8079314
  10.3369526  -6.0454602 -16.2729314  10.7259526  -5.3874602 -16.8489314
  10.8899526  -6.0374602 -15.4919314  11.2689526  -3.7484602 -10.5539314
  11.3209526  -3.3674602 -11.4299314  10.6819526  -4.4974602 -10.6519314
  18.3609526   7.8945398 -18.7289314  18.2339526   7.5715398 -19.6209314
  17.8159526   8.6805398 -18.6789314  13.7949526   3.3375398 -12.4589314
  14.4039526   2.8545398 -13.0169314  13.1419526   3.6895398 -13.0639314
   7.8709526  -3.7514602 -16.4129314   8.4649526  -3.6964602 -15.6639314
   8.3959526  -3.4604602 -17.1579314  17.0589526   3.9755398  -7.9679314
  17.1509526   4.6745398  -7.3199314  16.6209526   4.3935398  -8.7099314
  19.9459526 -19.4774602  -9.8749314  20.7239526 -19.9734602  -9.6189314
  19.7289526 -18.9554602  -9.1029314  17.9959526   0.7425398 -17.5379314
  17.9609526  -0.1414602 -17.9039314  17.5239526   1.2835398 -18.1709314
   7.7049526  -6.7864602 -17.0499314   7.0759526  -6.0754602 -16.9309314
   8.5559526  -6.3864602 -16.8729314  22.9429526   2.3535398 -11.5439314
  23.0039526   2.2435398 -12.4929314  23.8469526   2.4805398 -11.2579314
  11.4549526   1.0325398  -8.5779314  10.9159526   1.4825398  -7.9269314
  12.1459526   1.6595398  -8.7919314  18.7199526   1.7295398  -8.2579314
  19.0039526   1.7235398  -9.1719314  18.0399526   2.4025398  -8.2219314
  27.1759526 -18.4974602 -18.0649314  27.5229526 -19.1814602 -18.6379314
  26.3149526 -18.8214602 -17.7999314  35.2669526 -19.1074602   0.6680686
  34.4649526 -19.3204602   1.1460686  35.5189526 -18.2434602   0.9930686
  26.3109526   7.3725398 -10.1759314  25.7719526   7.7605398  -9.4869314
  25.6879526   7.1325398 -10.8619314   8.0819526 -21.5344602   6.2540686
   8.8669526 -21.4634602   5.7110686   8.3319526 -21.1404602   7.0900686
  13.8289526   2.6485398  -9.4979314  13.9289526   3.5565398  -9.2129314
  13.9589526   2.6785398 -10.4459314  17.5229526 -20.0854602  -3.7609314
  17.6889526 -20.0574602  -2.8179314  17.7979526 -19.2254602  -4.0779314
  33.4279526 -13.0084602  -4.7759314  33.0219526 -12.1414602  -4.7559314
  32.6899526 -13.6184602  -4.7829314  10.1959526   0.4165398 -11.3029314
  10.5089526   1.1735398 -10.8069314   9.2419526   0.4935398 -11.2819314
  22.5269526   1.7245398   0.5260686  23.0959526   1.5825398  -0.2299314
  22.0909526   0.8835398   0.6600686  14.1519526  -0.0794602 -10.2059314
  14.3529526   0.6825398  -9.6619314  13.6389526  -0.6524602  -9.6359314
  19.1559526   7.3575398  -9.7789314  18.3179526   7.0095398 -10.0849314
  19.6109526   7.6235398 -10.5779314  17.9559526  -3.0574602 -16.7189314
  17.7619526  -2.1254602 -16.6139314  18.6519526  -3.2304602 -16.0839314
  20.7339526 -21.0864602 -17.6359314  19.9529526 -21.3094602 -18.1419314
  20.7389526 -20.1294602 -17.6099314  10.2639526 -20.9464602 -14.9089314
  11.2189526 -20.8794602 -14.9149314   9.9679526 -20.1214602 -14.5249314
  16.5109526  -0.0744602 -11.5089314  15.9069526  -0.0474602 -10.7669314
  17.3009526   0.3635398 -11.1909314  35.9449526   2.3835398  -9.0209314
  35.2229526   1.7605398  -9.1109314  35.6359526   3.0175398  -8.3739314
  32.5539526   3.6415398 -10.8999314  31.6669526   3.8895398 -11.1589314
  32.9909526   3.4205398 -11.7229314  31.5659526  -0.7014602  -0.4589314
  32.4099526  -0.4374602  -0.8259314  31.7919526  -1.2934602   0.2590686
  20.0409526 -20.2244602  -6.9479314  20.6639526 -20.9244602  -6.7509314
  19.1969526 -20.5654602  -6.6529314  36.9329526   5.3665398 -10.5339314
  36.3269526   4.6685398 -10.7869314  37.5219526   4.9545398  -9.9019314
  20.3639526   4.4915398 -13.9189314  20.1679526   4.3255398 -12.9969314
  19.6029526   4.1545398 -14.3909314  21.0579526   1.6665398  -6.7319314
  20.1509526   1.5885398  -7.0299314  21.5649526   1.7825398  -7.5349314
  35.9089526   7.4335398   0.0650686  36.4399526   7.2685398   0.8440686
  35.0069526   7.3095398   0.3590686  14.2899526 -19.3444602   0.3140686
  14.8419526 -20.1104602   0.1570686  13.5389526 -19.6854602   0.8010686
  23.7559526  -9.2464602 -18.2859314  23.2339526  -8.4914602 -18.5589314
  23.3219526  -9.5644602 -17.4939314  21.5909526  -8.6774602 -13.6109314
  21.4629526  -8.8554602 -12.6789314  20.7079526  -8.6884602 -13.9809314
  17.9859526  -1.7794602  -9.5459314  17.1939526  -1.7224602  -9.0119314
  18.6999526  -1.5964602  -8.9349314  26.1159526  -6.8314602 -13.8769314
  26.2689526  -5.9884602 -13.4509314  25.9119526  -7.4294602 -13.1579314
  34.4429526 -21.2194602  -6.6499314  34.5999526 -21.8564602  -5.9529314
  35.0269526 -20.4894602  -6.4439314  19.2029526  -3.1804602 -11.7459314
  18.8349526  -2.9524602 -10.8919314  18.6549526  -2.7114602 -12.3759314
  31.7529526  -1.9544602  -6.9979314  31.9949526  -2.6634602  -6.4029314
  31.2809526  -2.3884602  -7.7089314  32.3099526  -6.6634602 -18.1299314
  32.4079526  -7.4434602 -18.6769314  31.5269526  -6.2284602 -18.4709314
  25.9579526   6.0805398 -16.1339314  26.8169526   5.7985398 -15.8209314
  25.3429526   5.7475398 -15.4809314  15.4479526 -17.3514602 -17.6229314
  15.5389526 -16.7084602 -16.9199314  14.6269526 -17.8054602 -17.4289314
  18.2919526   7.2335398 -16.0139314  18.3019526   8.0645398 -15.5379314
  18.6949526   7.4365398 -16.8589314  17.3009526   6.9045398  -7.5209314
  18.0979526   6.7665398  -8.0329314  17.6129526   7.0745398  -6.6319314
  24.4779526   0.8345398   7.9430686  24.7289526   1.3435398   8.7140686
  25.2109526   0.9415398   7.3360686   8.7709526   6.9205398 -11.9009314
   9.4399526   6.4115398 -12.3569314   7.9859526   6.3745398 -11.9389314
  33.0139526   1.2315398  -6.2789314  32.8179526   1.2145398  -7.2159314
  33.1719526   0.3165398  -6.0489314  26.3999526   5.1475398  -5.4509314
  26.7009526   5.3455398  -4.5639314  26.4519526   4.1935398  -5.5149314
  10.4439526   3.1795398 -10.4169314  10.8459526   4.0155398 -10.1819314
   9.6079526   3.4195398 -10.8179314   8.5029526   5.2255398 -19.0869314
   9.2789526   5.5385398 -19.5519314   8.3249526   4.3665398 -19.4689314
  36.6989526   6.3385398  -4.1599314  37.1949526   5.6045398  -4.5239314
  37.3549526   7.0175398  -4.0019314  29.4559526  -6.8994602 -10.7949314
  28.8299526  -6.8634602 -10.0719314  30.2279526  -6.4374602 -10.4669314
  20.3699526   0.5225398  -3.8709314  19.4179526   0.4295398  -3.8459314
  20.6099526   0.2965398  -4.7689314  20.0459526  -0.1634602 -13.1189314
  20.5759526   0.2765398 -13.7839314  19.4929526  -0.7684602 -13.6139314
  10.5309526 -15.3484602 -17.5779314  11.0929526 -14.6814602 -17.9729314
  11.0659526 -15.7304602 -16.8819314  24.1019526   2.0685398 -19.3839314
  24.5569526   2.8385398 -19.0429314  23.2309526   2.3885398 -19.6199314
  25.3489526  -8.9314602 -12.0469314  24.7969526  -9.5594602 -12.5129314
  24.7489526  -8.4794602 -11.4539314   7.2269526 -17.9704602 -13.6459314
   7.0819526 -18.8844602 -13.8879314   7.1629526 -17.9624602 -12.6909314
  26.9939526 -21.2384602   6.8320686  26.3969526 -21.4764602   7.5410686
  27.3859526 -20.4124602   7.1150686  33.4659526   1.6185398   2.6640686
  32.9969526   2.3115398   2.2000686  34.3319526   1.6005398   2.2570686
  15.7859526 -16.5934602   6.7360686  15.6559526 -16.6944602   7.6790686
  15.0569526 -16.0424602   6.4500686  12.1449526 -20.5294602   8.1340686
  12.3269526 -19.7204602   7.6570686  12.0139526 -21.1864602   7.4500686
  11.8379526   4.9005398 -17.4019314  11.9209526   4.1795398 -16.7779314
  11.0179526   5.3315398 -17.1639314  30.4619526   7.8245398  -2.5119314
  30.3979526   6.8695398  -2.4969314  30.0849526   8.0765398  -3.3539314
  23.3459526   1.9195398   2.9750686  22.9949526   2.0235398   2.0910686
  22.5859526   2.0265398   3.5490686  23.5009526   6.4015398  -3.4429314
  23.8829526   6.9235398  -2.7389314  24.0719526   6.5585398  -4.1959314
  20.6279526  -4.5324602   2.8630686  21.1909526  -5.1424602   3.3400686
  20.5189526  -4.9314602   2.0000686  20.5729526  -2.0494602   4.0410686
  20.6919526  -2.8584602   3.5430686  21.2859526  -2.0524602   4.6790686
  12.6079526  -0.6654602 -18.8489314  11.7029526  -0.6264602 -19.1589314
  12.9589526   0.2075398 -19.0229314  30.4309526   3.8385398   6.7860686
  30.9639526   4.2555398   6.1080686  29.7339526   4.4695398   6.9640686
  28.1899526   5.6675398   6.7950686  27.8419526   5.8095398   5.9150686
  28.4399526   6.5405398   7.0980686  21.7879526   4.2545398   0.1600686
  21.9179526   4.2645398  -0.7889314  21.7269526   3.3265398   0.3840686
  15.5499526 -18.9754602   5.4460686  15.1819526 -19.7174602   5.9250686
  15.5589526 -18.2604602   6.0820686  31.6109526  -4.5284602   2.9060686
  32.2109526  -5.2224602   3.1790686  30.7829526  -4.7424602   3.3350686
  21.7839526   6.0715398   9.9710686  20.8859526   5.8315398  10.1980686
  21.6929526   6.6635398   9.2240686  24.3259526   4.3105398   4.7470686
  25.0819526   4.2275398   4.1660686  23.7339526   3.6105398   4.4720686
  23.4729526   3.4985398  -2.9599314  23.0709526   3.4495398  -3.8269314
  23.7839526   4.4005398  -2.8899314  15.8229526   3.7565398 -16.6989314
  16.5429526   3.8265398 -17.3249314  15.3829526   4.6055398 -16.7439314
  33.8609526 -17.8644602   3.2440686  33.8629526 -18.6924602   3.7240686
  34.4449526 -17.2954602   3.7440686  15.5739526  -8.8724602  -6.7079314
  15.8479526  -8.3184602  -7.4379314  16.3389526  -9.4164602  -6.5189314
  11.9589526   0.4765398 -14.9899314  12.5739526   0.8075398 -15.6449314
  12.4779526   0.4055398 -14.1879314   8.2739526   2.3385398 -17.2009314
   8.7939526   1.8425398 -17.8329314   8.7119526   2.1925398 -16.3629314
  17.9349526 -19.3384602   8.6460686  17.0549526 -19.5374602   8.3260686
  17.8109526 -19.1194602   9.5690686  28.7359526   4.3285398  -0.2349314
  28.9739526   3.9595398  -1.0849314  28.2279526   3.6375398   0.1920686
  33.5909526   1.8805398 -15.5929314  34.3579526   1.7665398 -16.1539314
  33.2429526   2.7385398 -15.8339314  22.9689526 -19.4254602   2.2160686
  22.6049526 -19.5734602   3.0890686  23.8729526 -19.7334602   2.2780686
  26.4309526  -2.1304602   0.8540686  26.1189526  -2.4174602  -0.0039314
  25.6339526  -1.9414602   1.3490686  21.6249526 -18.1724602   9.2540686
  21.2619526 -19.0414602   9.0780686  22.1439526 -17.9684602   8.4760686
  24.1919526  -5.8044602   6.4240686  24.8649526  -5.1244602   6.3820686
  23.3839526  -5.3304602   6.6190686  20.1549526 -19.9754602   0.5170686
  21.0549526 -19.9254602   0.8400686  20.0299526 -20.8984602   0.2970686
  15.3429526 -20.2624602   8.6600686  14.6859526 -20.1214602   9.3420686
  15.2789526 -21.1964602   8.4560686  25.5769526 -13.5014602 -17.8759314
  26.2899526 -13.1474602 -17.3449314  25.1409526 -12.7294602 -18.2379314
  22.2219526  -4.2684602   6.9130686  22.3309526  -3.8374602   7.7610686
  21.6349526  -5.0024602   7.0910686  21.5429526  -0.6194602 -15.7049314
  21.4579526  -0.7624602 -16.6479314  22.1129526  -1.3274602 -15.4059314
  32.1839526 -18.5164602   5.9210686  31.8499526 -18.8354602   5.0830686
  32.7269526 -19.2324602   6.2510686  22.8879526   7.1935398 -16.2299314
  22.7519526   6.2675398 -16.4299314  22.2199526   7.6505398 -16.7409314
  16.1759526 -20.3534602 -18.3079314  15.4919526 -21.0234602 -18.3319314
  15.7629526 -19.5754602 -18.6809314  15.1229526   7.6385398  -8.9459314
  15.7019526   7.3165398  -8.2559314  14.6009526   8.3195398  -8.5219314
  20.2119526  -6.2944602   6.8760686  20.0899526  -7.2434602   6.8530686
  20.2929526  -6.0414602   5.9560686  12.5919526 -21.3534602   1.4140686
  12.2419526 -20.7264602   2.0470686  12.4539526 -22.2084602   1.8230686
  21.7609526 -13.7334602 -14.1279314  22.4529526 -13.8544602 -14.7779314
  21.4899526 -14.6224602 -13.8989314  19.3329526 -15.1834602 -11.6059314
  20.1539526 -15.6104602 -11.8489314  18.6669526 -15.6274602 -12.1309314
  17.8639526 -15.3184602  10.4830686  18.2109526 -14.6404602  11.0620686
  17.2439526 -14.8574602   9.9170686  32.0509526  -6.4124602 -13.0679314
  31.1619526  -6.1854602 -13.3419314  32.5819526  -5.6594602 -13.3259314
  26.4669526 -13.9834602  -6.6909314  26.6539526 -13.5504602  -7.5239314
  26.0699526 -13.3014602  -6.1489314  37.0289526  -8.5964602   0.6740686
  36.3309526  -7.9804602   0.4500686  36.6389526  -9.4594602   0.5350686
  30.5269526 -13.4294602  -4.8829314  30.1529526 -13.0614602  -5.6839314
  30.1609526 -14.3124602  -4.8309314  34.5689526 -17.5354602  -8.8299314
  34.4269526 -17.2354602  -9.7269314  34.8039526 -18.4594602  -8.9189314
  30.9319526 -13.6184602  -8.3499314  30.3549526 -13.0444602  -8.8529314
  31.5929526 -13.9054602  -8.9799314  31.2299526 -20.1794602  -8.5409314
  30.3139526 -20.0604602  -8.2909314  31.1999526 -20.7874602  -9.2789314
  29.9149526   0.3165398  10.4190686  30.1999526  -0.3684602  11.0250686
  30.4879526   0.2165398   9.6590686   7.1509526 -14.8014602  -1.8999314
   7.8689526 -14.1974602  -1.7109314   6.8079526 -14.5084602  -2.7439314
  26.4779526  -9.5054602 -17.7749314  25.5349526  -9.4104602 -17.9099314
  26.6509526 -10.4324602 -17.9419314  25.7129526 -16.6394602  -6.9749314
  26.2829526 -17.0464602  -7.6279314  26.0869526 -15.7684602  -6.8389314
  35.3109526   1.7935398  -4.6149314  34.6539526   1.9235398  -5.2979314
  36.1259526   1.6355398  -5.0929314  34.8509526 -18.7444602 -15.5339314
  35.3059526 -19.5114602 -15.8819314  34.1309526 -18.5944602 -16.1459314
  22.9599526 -14.5124602 -18.8229314  22.2929526 -14.6774602 -18.1559314
  23.5469526 -13.8724602 -18.4219314  26.6239526  -4.2894602   7.1630686
  27.3819526  -4.6564602   6.7080686  26.6279526  -4.7174602   8.0190686
  33.0299526 -16.0934602  -4.7149314  33.2489526 -15.6904602  -5.5549314
  32.8529526 -17.0094602  -4.9269314  32.5409526 -14.5594602 -13.9839314
  31.9759526 -15.3224602 -14.1049314  32.8539526 -14.3504602 -14.8649314
  21.8879526 -10.2704602   1.0120686  21.2109526  -9.7974602   0.5280686
  22.4679526  -9.5844602   1.3450686  25.5559526   2.2745398 -10.2949314
  25.9279526   3.0865398 -10.6369314  26.0049526   1.5815398 -10.7789314
  23.7979526 -14.5234602 -15.5969314  24.2869526 -14.0144602 -16.2439314
  23.8749526 -15.4294602 -15.8969314  12.7059526 -17.6134602  -1.5209314
  13.2199526 -18.1144602  -0.8889314  12.1999526 -18.2734602  -1.9959314
  32.3869526 -15.9124602   0.2560686  33.2619526 -16.2474602   0.0600686
  32.0119526 -15.7054602  -0.5999314  17.5979526 -14.3944602   1.4310686
  18.4379526 -14.7364602   1.1230686  17.7189526 -14.2744602   2.3730686
  12.5209526 -12.6044602  -6.1369314  11.6349526 -12.6854602  -5.7849314
  12.4969526 -11.8064602  -6.6659314  36.6229526 -20.8294602 -16.1069314
  37.2859526 -20.7664602 -16.7939314  36.2329526 -21.6954602 -16.2289314
  26.2109526 -10.2084602  -5.6469314  25.8209526 -10.1304602  -6.5179314
  25.8529526  -9.4694602  -5.1559314  30.5409526  -4.9154602  -1.5629314
  30.0999526  -4.2834602  -2.1309314  29.9329526  -5.0494602  -0.8359314
   8.3329526   3.8525398  -8.3939314   8.9739526   3.2695398  -8.8009314
   7.5309526   3.3325398  -8.3459314   7.6489526 -18.0924602 -17.3769314
   7.9939526 -17.5874602 -18.1129314   6.7099526 -18.1594602 -17.5509314
  32.5429526   1.4715398 -13.1359314  33.2539526   1.0625398 -12.6419314
  32.9159526   1.6355398 -14.0019314  26.9189526  -9.3674602 -14.6429314
  27.3779526  -9.2074602 -13.8189314  26.6449526  -8.4994602 -14.9379314
  25.1069526 -14.5224602   7.7360686  24.4159526 -14.9684602   8.2250686
  25.1899526 -15.0244602   6.9250686  32.6509526 -10.3974602  -4.0079314
  32.2089526 -10.9324602  -3.3489314  31.9489526  -9.8874602  -4.4129314
   8.7859526  -6.9664602 -13.8289314   8.1639526  -7.0164602 -14.5559314
   8.8519526  -7.8654602 -13.5079314  33.8329526 -17.9154602  -1.6209314
  33.5559526 -17.4464602  -2.4079314  33.1369526 -18.5524602  -1.4629314
  28.7159526  -2.0424602 -18.2799314  29.4939526  -2.4464602 -17.8969314
  28.4759526  -1.3504602 -17.6639314  26.9859526 -13.7464602   9.7510686
  26.5459526 -14.0114602   8.9430686  26.3639526 -13.9604602  10.4450686
  36.3079526   2.2365398 -13.6449314  36.4559526   2.7895398 -14.4119314
  36.5209526   1.3515398 -13.9419314  28.3569526 -20.7734602 -10.8999314
  28.4899526 -20.4294602 -10.0169314  27.6819526 -21.4444602 -10.7959314
  31.2739526 -17.0994602   9.7920686  31.0099526 -16.5074602   9.0880686
  30.5249526 -17.1114602  10.3890686  34.1109526 -20.9144602   3.8730686
  33.2019526 -21.1564602   3.6940686  34.5489526 -21.7454602   4.0570686
  34.1449526  -1.1784602  -5.9499314  33.2959526  -1.4634602  -6.2869314
  34.5229526  -1.9644602  -5.5559314  30.4529526 -16.4844602  -7.6679314
  30.8549526 -15.6484602  -7.9059314  31.1939526 -17.0644602  -7.4899314
  32.0659526 -20.5004602   0.6300686  31.7629526 -20.1324602  -0.1999314
  31.5659526 -20.0314602   1.2980686  29.6219526   2.3835398  -3.2139314
  30.4099526   2.2965398  -2.6779314  29.9489526   2.5375398  -4.0999314
   7.2639526  -9.6964602  -7.8769314   7.5309526  -9.9244602  -6.9869314
   7.9899526  -9.1764602  -8.2199314  32.8269526  -2.3834602 -11.3029314
  31.9399526  -2.4014602 -10.9439314  33.2769526  -3.1054602 -10.8659314
  23.7439526 -11.9604602 -12.3829314  23.3759526 -12.4274602 -13.1339314
  24.6479526 -12.2684602 -12.3279314  25.4329526   4.2175398 -13.4399314
  25.9559526   3.4705398 -13.7319314  24.6869526   4.2365398 -14.0389314
  11.8829526   4.2835398 -14.2349314  11.4429526   5.1075398 -14.0229314
  11.1699526   3.6655398 -14.3949314  30.3319526   1.6365398  -8.9909314
  30.0609526   2.1955398  -9.7199314  29.6409526   0.9775398  -8.9259314
  32.8279526   4.9845398  -3.4829314  32.6299526   4.0895398  -3.7569314
  31.9759526   5.3635398  -3.2669314   7.1209526 -15.1944602 -12.1939314
   6.5429526 -15.6354602 -12.8179314   7.7989526 -14.7924602 -12.7379314
  12.5009526 -19.8904602  -5.3819314  13.4429526 -19.9834602  -5.5289314
  12.2099526 -19.2844602  -6.0629314  28.0689526 -10.1784602   8.6210686
  28.5749526 -10.7904602   9.1550686  28.5619526 -10.1094602   7.8030686
  19.1309526 -17.7404602 -19.1739314  18.5389526 -17.0174602 -19.3809314
  19.8059526 -17.6994602 -19.8519314  31.5499526 -19.4424602  -1.9169314
  31.7879526 -19.3454602  -2.8389314  31.0099526 -20.2324602  -1.8899314
  15.6399526 -17.1304602  -0.0549314  16.2469526 -17.4334602   0.6210686
  14.9049526 -17.7424602  -0.0079314  34.7639526 -14.2994602   9.0100686
  35.2829526 -13.5254602   8.7900686  34.6039526 -14.7294602   8.1700686
  28.3239526 -19.7994602  -8.4329314  28.1469526 -19.7814602  -7.4929314
  28.1879526 -18.8964602  -8.7199314  29.2069526 -15.3054602  -3.0219314
  28.6659526 -14.7114602  -2.5019314  28.7709526 -15.3454602  -3.8729314
  24.1359526 -11.7524602  10.6120686  24.0229526 -10.8154602  10.7670686
  24.4499526 -11.8104602   9.7090686  35.0849526 -19.9854602 -10.1869314
  34.7589526 -20.7554602  -9.7219314  34.6759526 -20.0354602 -11.0509314
  28.6619526  -5.4414602  -0.0219314  28.3489526  -4.9744602   0.7520686
  29.1179526  -6.2074602   0.3270686  31.6789526  -8.7254602  -1.4239314
  32.4209526  -9.2374602  -1.7469314  32.0789526  -8.0104602  -0.9279314
   9.7859526 -17.4394602   2.3880686   9.3959526 -17.9424602   1.6730686
  10.0899526 -16.6314602   1.9730686  36.9569526   0.9555398   4.2360686
  37.6099526   0.4815398   3.7220686  36.2129526   1.0595398   3.6420686
  30.0619526   8.2415398 -12.8029314  29.4079526   8.5785398 -12.1909314
  30.7339526   7.8495398 -12.2439314  37.1219526 -12.1734602 -12.1359314
  36.1859526 -12.2754602 -11.9639314  37.2619526 -12.6184602 -12.9709314
  19.2299526 -14.0734602  -7.2609314  20.1699526 -14.0984602  -7.4399314
  19.0569526 -14.8794602  -6.7749314  29.3469526  -9.1674602  -7.9999314
  28.8419526  -8.3754602  -8.1839314  29.2979526  -9.6764602  -8.8089314
  35.0839526 -12.5944602  -0.7699314  35.9749526 -12.7424602  -0.4509314
  34.5319526 -13.1214602  -0.1919314  33.0249526  -0.4304602   9.4530686
  32.5199526  -0.5114602   8.6450686  33.5269526   0.3775398   9.3430686
   9.7269526 -12.6024602 -10.8489314  10.1499526 -12.4004602 -10.0139314
   8.8609526 -12.2014602 -10.7819314   9.0569526 -13.2774602  -1.0559314
   9.9079526 -12.8734602  -0.8879314   8.4989526 -12.9674602  -0.3429314
  34.5939526 -15.5714602  -6.8069314  34.7249526 -16.3964602  -7.2749314
  34.5229526 -14.9124602  -7.4979314  13.1559526 -18.0244602 -16.1479314
  12.8029526 -17.1604602 -15.9339314  12.4659526 -18.4434602 -16.6629314
  27.2529526 -18.2804602 -12.3089314  27.8789526 -18.8464602 -11.8559314
  26.5189526 -18.1994602 -11.7009314  23.9379526   8.1325398  -8.8629314
  23.4109526   7.5465398  -8.3199314  23.3689526   8.3555398  -9.5989314
  12.9769526 -11.2484602 -14.1189314  12.7259526 -10.6924602 -13.3809314
  12.9629526 -10.6634602 -14.8759314  29.1409526   6.3185398   1.8950686
  29.3819526   5.7835398   1.1390686  29.4979526   7.1855398   1.6990686
  33.0949526   6.9215398   1.0940686  32.4779526   6.3395398   0.6490686
  32.7689526   7.8025398   0.9090686  23.0419526  -5.5844602 -18.8079314
  22.1599526  -5.9224602 -18.6549314  23.4809526  -6.2764602 -19.3029314
  29.2549526 -13.7614602 -10.8479314  30.1689526 -14.0454602 -10.8799314
  29.2179526 -13.0054602 -11.4339314  31.4769526 -10.6314602 -12.2449314
  31.7849526 -10.1844602 -11.4569314  32.1889526 -10.5234602 -12.8759314
  27.5569526   6.0685398  -2.9809314  27.1049526   6.8785398  -2.7429314
  27.0029526   5.3715398  -2.6309314  24.2699526   2.9565398  -7.8889314
  24.2239526   2.5625398  -8.7599314  24.9669526   3.6095398  -7.9569314
  34.2009526 -13.6064602  -8.7239314  33.7599526 -12.8694602  -8.3009314
  34.3759526 -13.3014602  -9.6149314  31.5209526 -13.2964602 -19.3169314
  32.0899526 -12.6964602 -19.7989314  32.0399526 -13.5604602 -18.5569314
  34.7549526  -3.6954602   0.9510686  34.0999526  -3.6084602   1.6440686
  34.8829526  -2.8034602   0.6280686  27.5359526 -15.8044602 -13.5319314
  27.7799526 -16.5904602 -13.0439314  28.3709526 -15.4294602 -13.8149314
  30.1309526   4.1695398 -11.7349314  29.3069526   4.5855398 -11.9879314
  30.1489526   3.3505398 -12.2299314  22.1609526 -18.4194602  -7.5099314
  23.0209526 -18.8274602  -7.6129314  21.6669526 -19.0334602  -6.9659314
   8.3449526 -14.7184602  -5.3199314   7.4569526 -14.7914602  -4.9729314
   8.6379526 -13.8484602  -5.0499314   8.2939526  -3.1974602 -11.3239314
   8.8769526  -3.0694602 -10.5749314   7.5039526  -3.5874602 -10.9499314
  32.4189526  -8.0264602  -7.9019314  32.1229526  -7.2984602  -7.3559314
  33.2089526  -8.3464602  -7.4659314  34.2019526   6.3265398  -5.1829314
  33.7199526   5.8195398  -4.5299314  35.0999526   6.3515398  -4.8529314
  31.8779526 -19.4144602 -13.5839314  31.2739526 -20.1574602 -13.5709314
  32.7479526 -19.8134602 -13.5789314  26.5079526  -6.3614602  -3.3899314
  27.3229526  -6.8564602  -3.4769314  26.7899526  -5.4754602  -3.1619314
  34.8559526  -7.9304602 -15.6359314  34.8289526  -7.6874602 -14.7109314
  34.9909526  -7.1024602 -16.0979314  29.9369526  -7.1454602   9.8030686
  30.1629526  -6.2354602   9.9980686  29.4299526  -7.0974602   8.9930686
  31.5949526 -17.7434602 -11.1459314  31.7559526 -18.4034602 -11.8199314
  32.4589526 -17.5664602 -10.7719314  34.9819526  -5.5694602 -17.6689314
  34.1529526  -6.0344602 -17.7879314  35.3599526  -5.5254602 -18.5469314
  28.5109526 -15.5704602  -5.7569314  27.8349526 -15.0754602  -6.2199314
  29.1289526 -15.8294602  -6.4409314  11.4959526 -10.6594602 -18.4349314
  10.7899526 -10.0864602 -18.1359314  12.2139526 -10.4954602 -17.8229314
  25.0389526  -4.3544602  -8.1869314  24.9959526  -5.2904602  -8.3839314
  25.9079526  -4.2314602  -7.8029314  32.5709526  -9.5654602 -10.0769314
  32.2099526  -9.0174602  -9.3799314  33.3699526  -9.9354602  -9.7019314
  34.3279526 -16.5594602 -11.4219314  34.4809526 -15.6384602 -11.2089314
  34.6509526 -16.6544602 -12.3179314  31.2289526 -12.5584602   4.8930686
  30.5529526 -13.0994602   4.4860686  32.0109526 -13.1104602   4.8930686
  23.8759526  -3.1084602 -17.8019314  23.8119526  -3.9994602 -18.1459314
  24.5029526  -2.6734602 -18.3789314  29.9389526  -7.9574602   0.4770686
  30.6509526  -8.2584602  -0.0879314  29.1969526  -8.5164602   0.2460686
  30.3489526 -21.0604602  -5.2579314  30.7939526 -21.7674602  -5.7249314
  31.0389526 -20.4244602  -5.0709314  15.6039526  -2.6044602 -14.7889314
  15.5349526  -3.5344602 -14.5729314  14.9639526  -2.4724602 -15.4879314
   8.0049526  -9.3314602 -15.9699314   7.8569526  -8.6694602 -16.6449314
   7.3349526  -9.9954602 -16.1339314  23.3519526 -15.8664602  -7.6779314
  24.2459526 -16.1764602  -7.5379314  22.8169526 -16.6594602  -7.6569314
  32.3509526 -19.0074602  -4.3329314  33.2499526 -19.3314602  -4.2689314
  32.2029526 -18.8944602  -5.2719314  33.1269526 -11.7594602  -7.0619314
  33.4429526 -12.4274602  -6.4529314  32.1899526 -11.6914602  -6.8779314
  30.1109526 -13.0954602 -15.9779314  30.3049526 -12.1594602 -16.0329314
  30.5279526 -13.3794602 -15.1639314  25.4869526 -19.7624602 -14.9759314
  25.2619526 -20.4974602 -14.4059314  26.4429526 -19.7224602 -14.9489314
  35.0789526 -12.3164602   5.9360686  35.6699526 -12.2654602   6.6870686
  34.5659526 -11.5094602   5.9790686  36.4979526  -1.0644602  -6.9999314
  35.6059526  -1.0564602  -6.6529314  36.3859526  -1.0784602  -7.9499314
  26.9999526 -13.1624602  -9.4169314  26.9999526 -12.2784602  -9.7839314
  27.7039526 -13.6144602  -9.8799314  29.7819526 -10.1594602   6.6690686
  29.8539526 -10.9734602   6.1700686  30.6739526  -9.9814602   6.9680686
  29.4329526  -3.7064602  -5.7549314  29.5689526  -2.9724602  -5.1569314
  28.5859526  -3.5294602  -6.1649314  25.6439526  -2.6034602   5.1990686
  25.8839526  -3.2294602   5.8830686  26.4429526  -2.1014602   5.0420686
   8.0689526  -9.7454602 -13.0169314   7.8959526  -9.9604602 -13.9339314
   7.9279526 -10.5674602 -12.5469314  25.6349526 -15.2944602 -10.5369314
  25.7769526 -15.2244602 -11.4809314  25.9489526 -14.4624602 -10.1839314
  24.6729526 -19.4124602  -7.7839314  24.6259526 -19.6044602  -6.8469314
  24.5319526 -20.2574602  -8.2089314  30.1779526 -15.4844602 -17.1969314
  30.2079526 -14.5664602 -16.9279314  29.6669526 -15.4814602 -18.0059314
  26.5199526   7.4885398 -18.6139314  27.4769526   7.4805398 -18.6199314
  26.2799526   6.9685398 -17.8469314  30.1829526 -16.9484602   7.1340686
  30.8829526 -17.3764602   6.6420686  29.5459526 -16.6884602   6.4690686
  36.4929526  -0.2264602  -2.6799314  36.2089526   0.5855398  -3.0999314
  37.3819526  -0.0414602  -2.3779314  37.0899526 -18.2174602 -10.7479314
  36.3779526 -18.8424602 -10.6109314  36.7139526 -17.3694602 -10.5139314
  15.0129526 -20.6004602 -12.4219314  15.4759526 -20.1254602 -11.7319314
  14.7019526 -19.9174602 -13.0159314  33.1529526 -15.3274602 -16.6099314
  33.8659526 -15.0534602 -17.1869314  32.5659526 -15.8284602 -17.1759314
  32.5019526  -0.7144602 -17.9509314  32.5899526  -0.5294602 -18.8859314
  33.3139526  -1.1644602 -17.7179314  35.4559526 -16.0624602  -0.1819314
  35.8939526 -15.5364602  -0.8509314  35.1499526 -16.8394602  -0.6499314
  20.7959526 -20.7214602   9.3110686  19.8989526 -20.8544602   9.6160686
  21.3349526 -20.8374602  10.0940686  28.0319526 -17.1454602  -1.7279314
  27.6719526 -17.6234602  -2.4749314  28.6139526 -16.4934602  -2.1189314
  26.6419526  -8.0744602   9.8370686  26.7109526  -8.5964602  10.6370686
  27.0289526  -8.6254602   9.1570686  36.4949526 -11.7524602 -18.2669314
  36.8729526 -11.9124602 -19.1309314  35.9779526 -12.5374602 -18.0819314
  30.9039526  -4.7404602  10.2310686  30.8669526  -4.1474602  10.9810686
  31.7449526  -4.5504602   9.8150686  28.5099526  -8.3224602   4.7710686
  28.7109526  -9.1884602   5.1270686  28.3689526  -8.4734602   3.8370686
  31.4739526  -5.0784602   7.0370686  31.5889526  -4.1924602   6.6950686
  31.1279526  -4.9514602   7.9210686  36.2659526 -11.1514602   3.0020686
  35.3739526 -10.9414602   2.7250686  36.1839526 -11.3674602   3.9310686
  34.6059526  -9.8804602  -0.6559314  34.6749526 -10.8334602  -0.7159314
  34.6949526  -9.6914602   0.2780686  35.2089526  -8.4534602   4.5010686
  35.8519526  -8.8534602   5.0880686  34.5429526  -8.0924602   5.0860686
  31.2029526 -19.7944602   8.6320686  31.8709526 -20.0994602   8.0180686
  31.4959526 -18.9204602   8.8900686  28.8539526  -8.1684602 -17.0989314
  28.8639526  -7.8224602 -17.9909314  28.0459526  -8.6794602 -17.0489314
   7.7729526 -17.0484602   7.0970686   7.9119526 -17.1944602   6.1620686
   7.9669526 -16.1204602   7.2270686  35.1209526   4.2405398 -19.2819314
  34.7419526   4.8545398 -19.9119314  35.8809526   4.7015398 -18.9269314
  28.2839526 -16.5294602   4.9250686  27.4399526 -16.2654602   5.2900686
  28.3459526 -17.4654602   5.1150686  33.6339526 -15.9504602   6.4560686
  32.9109526 -16.5634602   6.3230686  34.4129526 -16.4354602   6.1830686
  35.8499526   6.6545398 -16.4349314  35.9659526   5.7555398 -16.1269314
  36.5679526   6.7925398 -17.0519314   9.7389526 -14.4574602   3.8470686
  10.0059526 -13.6454602   3.4150686   9.1939526 -14.9054602   3.1990686
  29.5229526   2.9415398 -18.6639314  28.7469526   2.8695398 -18.1079314
  29.5959526   2.0855398 -19.0859314  34.0989526 -13.7754602   1.4270686
  34.2539526 -13.9624602   2.3530686  33.2649526 -14.2044602   1.2330686
  26.6469526  -2.2704602 -14.6909314  26.9179526  -3.0284602 -15.2079314
  26.6619526  -1.5404602 -15.3099314  34.0299526 -10.9584602 -13.9349314
  34.3869526 -10.0934602 -13.7369314  34.6329526 -11.3244602 -14.5829314
  29.2769526 -14.1804602   3.7510686  29.7229526 -14.2994602   2.9130686
  29.0749526 -15.0694602   4.0440686  30.1449526   5.2925398  -3.5269314
  29.2079526   5.2905398  -3.3329314  30.2679526   4.5525398  -4.1219314
  33.1729526  -6.5534602   3.4290686  33.9199526  -6.9604602   2.9900686
  33.2579526  -6.8204602   4.3440686  33.8019526   7.3645398 -18.2589314
  34.6219526   7.0135398 -17.9119314  33.4219526   7.8535398 -17.5289314
  31.3459526   2.0135398  -1.1149314  31.3659526   1.2275398  -0.5679314
  32.2389526   2.0945398  -1.4509314  34.4989526   6.5145398   8.8750686
  33.9559526   7.0455398   9.4590686  35.1589526   7.1235398   8.5430686
  31.2659526  -3.0204602 -17.7169314  31.6239526  -2.1554602 -17.9179314
  31.9179526  -3.4224602 -17.1419314  32.3349526  -6.3934602  -0.2439314
  31.7709526  -6.1894602   0.5030686  32.1179526  -5.7284602  -0.8969314
  34.9789526 -18.5904602 -18.6939314  34.2289526 -19.1634602 -18.5329314
  34.6609526 -17.7134602 -18.4829314  24.6789526 -15.5844602   2.3820686
  25.0169526 -16.4784602   2.4320686  25.3299526 -15.1094602   1.8650686
  25.7229526 -17.7364602   8.2160686  26.5359526 -18.2344602   8.1310686
  25.6759526 -17.5094602   9.1450686  36.3079526  -9.8194602   6.7980686
  36.4759526 -10.3754602   7.5590686  36.6659526  -8.9654602   7.0410686
  27.1579526 -14.9274602   1.1940686  27.5009526 -15.7894602   0.9590686
  27.9369526 -14.3924602   1.3460686  36.5039526 -18.3634602  -3.4109314
  36.3269526 -19.1444602  -2.8859314  35.9969526 -17.6704602  -2.9869314
  33.2319526  -9.1314602   8.1440686  32.5229526  -9.2964602   8.7650686
  33.9929526  -8.9414602   8.6920686  24.9699526 -13.9044602   4.6390686
  24.8479526 -14.8534602   4.6090686  24.1059526 -13.5584602   4.8650686
  28.6539526  -5.8464602   5.9370686  29.3319526  -6.0264602   6.5880686
  28.4769526  -6.6964602   5.5330686  36.9399526 -18.9354602   9.2250686
  36.4019526 -18.6054602   9.9440686  36.8099526 -18.3034602   8.5180686
  31.0909526 -16.8224602 -14.4119314  30.9749526 -17.0064602 -15.3439314
  31.3379526 -17.6644602 -14.0299314  35.7879526 -16.5484602   4.4900686
  36.3189526 -15.8644602   4.8990686  36.3609526 -17.3144602   4.4650686
   9.6069526 -17.7384602   9.5110686   9.4299526 -16.7994602   9.5540686
   9.0949526 -18.0464602   8.7630686  16.9799526  -9.7234602  -2.3039314
  17.2909526 -10.3054602  -1.6109314  17.2129526 -10.1734602  -3.1169314
  27.2259526  -5.3094602   9.4950686  27.0119526  -6.2244602   9.3160686
  27.6669526  -5.3274602  10.3450686  27.0929526 -12.3254602   3.9260686
  27.8909526 -12.8534602   3.9730686  26.3939526 -12.9244602   4.1900686
  30.6959526  -8.8084602  -5.2899314  30.3969526  -8.9014602  -6.1939314
  30.9559526  -7.8904602  -5.2159314  29.0169526  -3.0704602   7.9410686
  28.7759526  -2.3114602   8.4720686  28.2959526  -3.6884602   8.0630686
  27.7499526  -0.8754602   9.0700686  27.8969526  -0.5964602   9.9730686
  27.6549526  -0.0594602   8.5780686  30.1869526 -14.4354602   1.2490686
  30.6619526 -13.7394602   0.7950686  30.6729526 -15.2334602   1.0390686
   7.2109526 -14.3554602   5.5530686   8.0909526 -14.2214602   5.1990686
   6.7679526 -13.5174602   5.4180686  28.3729526 -17.3164602  -9.2459314
  29.2609526 -17.0984602  -8.9629314  28.0469526 -16.5124602  -9.6519314
  12.3679526  -9.9734602 -11.9349314  11.9349526 -10.6064602 -11.3609314
  12.6649526  -9.2804602 -11.3459314  13.1419526 -15.4904602  -6.4929314
  13.8519526 -15.6034602  -7.1249314  13.0699526 -14.5434602  -6.3789314
  32.9679526  -7.3104602   5.8990686  33.0099526  -7.9324602   6.6260686
  32.4439526  -6.5844602   6.2360686  34.0589526   4.5935398   2.6920686
  34.9809526   4.6845398   2.9360686  33.8959526   5.3225398   2.0940686
   7.5989526 -11.7634602  -5.5849314   6.9169526 -11.7484602  -4.9129314
   7.3149526 -12.4404602  -6.1999314  29.0969526  -7.5824602  -3.3649314
  29.7379526  -8.1504602  -3.7929314  29.5799526  -7.1784602  -2.6439314
  28.4409526   2.0545398   7.6720686  29.1419526   2.6085398   7.3280686
  27.9099526   2.6435398   8.2070686  31.2039526 -17.8134602   1.6400686
  31.6779526 -17.0534602   1.3010686  31.6319526 -18.0104602   2.4730686
  20.8319526 -15.0764602  -3.8439314  21.3349526 -14.6814602  -4.5559314
  20.5179526 -14.3314602  -3.3309314  35.2779526  -9.0124602   9.8660686
  36.1279526  -8.5734602   9.8620686  35.2949526  -9.5614602  10.6500686
  26.4429526 -12.4344602   0.4820686  26.0599526 -11.6314602   0.8350686
  26.2019526 -13.1134602   1.1130686  24.3059526 -19.2874602  -5.2199314
  24.5469526 -19.8454602  -4.4799314  24.0859526 -18.4444602  -4.8229314
  13.2659526 -17.8834602   4.3780686  14.1219526 -18.0954602   4.7510686
  12.7169526 -17.6844602   5.1360686  34.5639526 -13.2334602 -12.1059314
  34.1689526 -12.4734602 -12.5339314  34.5429526 -13.9204602 -12.7719314
  11.7289526 -13.3234602 -19.1219314  11.6399526 -12.3874602 -18.9429314
  12.6699526 -13.4894602 -19.0669314  10.6689526 -16.2354602  -4.7599314
  11.3769526 -15.7824602  -5.2189314   9.9369526 -15.6184602  -4.7789314
  21.4579526 -12.9344602   1.0080686  21.5169526 -11.9824602   1.0850686
  21.4879526 -13.1014602   0.0660686  26.7299526  -4.4664602   2.1830686
  27.3649526  -4.2714602   2.8720686  26.4969526  -3.6114602   1.8210686
  34.2249526  -9.1474602   1.9490686  33.4439526  -9.6344602   2.2120686
  34.7949526  -9.1734602   2.7170686   8.7999526 -16.9704602  -2.1209314
   8.3579526 -17.4164602  -2.8439314   8.1709526 -16.3124602  -1.8249314
  29.3999526 -11.1734602   2.2810686  28.8109526 -10.4234602   2.1910686
  28.8529526 -11.8634602   2.6580686  35.7029526  -0.9764602   0.8980686
  36.2929526  -0.6664602   1.5840686  35.5969526  -0.2254602   0.3140686
  25.6059526   4.1715398 -18.7659314  25.7029526   5.0735398 -18.4599314
  26.2869526   4.0705398 -19.4319314  31.4099526  -6.2114602  -6.0499314
  30.8279526  -5.4824602  -6.2629314  31.9719526  -5.8734602  -5.3519314
  29.6369526  -5.9524602 -15.1949314  28.9789526  -5.4414602 -15.6669314
  29.5799526  -6.8284602 -15.5759314  26.6439526 -21.4704602  -2.2459314
  26.9419526 -21.1804602  -3.1079314  25.7699526 -21.0924602  -2.1539314
  31.6679526   4.6545398   0.2850686  32.4019526   4.2045398  -0.1339314
  30.8919526   4.3135398  -0.1609314  29.0609526   8.2015398 -15.1929314
  28.5819526   9.0235398 -15.0969314  29.3829526   8.0065398 -14.3129314
  26.8679526   2.4685398  -5.9229314  27.3679526   2.6115398  -6.7269314
  27.4699526   1.9975398  -5.3469314  23.3269526 -18.9364602 -12.4469314
  23.5879526 -19.8124602 -12.7299314  24.1469526 -18.5094602 -12.2009314
  24.9449526 -17.8804602 -10.6599314  25.1119526 -16.9504602 -10.5039314
  24.7849526 -18.2454602  -9.7899314  27.4189526   2.5785398 -16.6589314
  26.6949526   3.0675398 -17.0479314  27.3399526   2.7405398 -15.7189314
  28.7889526 -21.5174602  -0.0769314  29.4009526 -21.7314602  -0.7819314
  28.0459526 -21.1084602  -0.5209314  34.2389526  -0.1144602 -11.3569314
  34.1069526   0.4695398 -10.6099314  33.4559526  -0.6644602 -11.3739314
  28.2039526 -19.4184602 -14.7439314  28.2009526 -18.8694602 -13.9589314
  28.6509526 -18.8894602 -15.4049314  29.0979526 -11.3894602  -3.2629314
  29.0729526 -11.2104602  -4.2039314  29.9779526 -11.7344602  -3.1079314
  23.6989526  -3.4384602  -6.1279314  23.8189526  -4.0284602  -6.8719314
  24.5369526  -2.9854602  -6.0439314  34.9539526  -4.0974602 -10.1219314
  34.8369526  -4.2314602  -9.1819314  35.3979526  -3.2514602 -10.1899314
   9.1699526   6.8045398 -15.9749314   8.7379526   7.2455398 -16.7059314
   9.5569526   7.5145398 -15.4619314  24.5489526  -1.9144602 -12.5499314
  23.6609526  -2.2594602 -12.4559314  24.8109526  -2.1654602 -13.4359314
  32.5919526   3.8255398   9.3030686  33.4399526   3.3865398   9.2270686
  32.1339526   3.6035398   8.4920686  33.7649526  -3.9654602  -5.9239314
  33.3689526  -3.7454602  -5.0799314  33.9019526  -4.9124602  -5.8839314
  27.0219526   2.0175398 -14.0309314  26.5489526   1.1855398 -14.0139314
  27.9359526   1.7765398 -13.8799314  30.1339526   0.0965398  -5.9919314
  29.6589526   0.0805398  -6.8229314  31.0419526  -0.0894602  -6.2309314
  28.6159526   5.4945398 -15.5489314  28.9229526   5.1735398 -16.3969314
  28.8909526   6.4115398 -15.5259314  29.6559526   1.6535398 -13.2339314
  29.6039526   0.8695398 -12.6869314  30.5739526   1.7005398 -13.5009314
  32.3189526 -18.2824602  -7.0729314  31.9459526 -18.8894602  -7.7119314
  33.1749526 -18.0504602  -7.4329314  31.2019526   0.2965398 -15.7479314
  31.8469526   0.9195398 -15.4139314  31.5269526   0.0555398 -16.6149314
  32.4129526  -5.0094602 -15.7529314  32.5199526  -5.6654602 -16.4419314
  31.5789526  -5.2314602 -15.3379314  32.7629526  -0.6394602   3.7670686
  33.0279526   0.1635398   3.3190686  32.1179526  -1.0384602   3.1840686
  35.1619526  -6.4864602  -5.3579314  35.4179526  -7.3754602  -5.6019314
  35.7959526  -5.9234602  -5.8039314  28.5869526  -3.8524602 -10.4919314
  27.7769526  -3.5644602 -10.0709314  28.2969526  -4.3594602 -11.2499314
  28.3989526  -0.2314602  -8.5759314  27.4619526  -0.1484602  -8.3989314
  28.4459526  -0.6074602  -9.4549314  27.0309526   4.4335398   8.8970686
  26.1449526   4.7895398   8.8340686  27.4719526   4.7455398   8.1070686
  29.8579526  -2.2174602  -2.1039314  29.3909526  -1.4664602  -2.4719314
  30.5159526  -1.8304602  -1.5259314  26.8029526   0.0105398 -11.8919314
  26.2079526  -0.6574602 -12.2329314  27.6009526  -0.4694602 -11.6729314
  30.7939526  -3.7814602  -8.9699314  31.2429526  -4.5954602  -9.1969314
  30.0429526  -3.7494602  -9.5629314  34.5609526   4.3065398 -12.9759314
  34.8479526   3.4035398 -12.8459314  34.4859526   4.4005398 -13.9259314
  34.2439526   3.6935398  -0.6219314  34.3209526   3.0615398  -1.3359314
  35.0329526   4.2305398  -0.6899314  36.0879526  -6.2794602  -2.0989314
  35.7579526  -6.4854602  -1.2249314  35.6479526  -6.9044602  -2.6749314
  24.1149526   1.1805398  -1.8139314  23.9709526   0.4855398  -2.4569314
  23.8659526   1.9845398  -2.2689314  32.6059526 -19.3884602 -17.2089314
  31.7869526 -18.8954602 -17.2539314  32.3689526 -20.2104602 -16.7799314
  34.9279526  -5.0514602 -14.5219314  34.2549526  -5.0844602 -15.2019314
  35.3169526  -4.1804602 -14.6109314  25.2519526 -10.0814602  -1.3519314
  25.2029526  -9.8404602  -0.4269314  26.1179526  -9.7844602  -1.6309314
  18.8849526 -17.3484602  -4.0169314  18.1479526 -17.1424602  -3.4409314
  19.5869526 -16.7674602  -3.7249314  31.7179526   8.1835398 -16.2179314
  30.7709526   8.0705398 -16.1419314  32.0719526   7.7745398 -15.4279314
  31.2449526   6.9395398 -10.8119314  32.0769526   6.4665398 -10.7969314
  30.6139526   6.3265398 -10.4349314  34.7199526   6.8135398 -11.8969314
  34.6569526   5.8615398 -11.9779314  34.6449526   6.9785398 -10.9569314
  33.8079526   1.7075398  -2.3659314  34.1369526   2.0005398  -3.2159314
  33.5309526   0.8035398  -2.5139314  35.7329526   1.8875398 -17.3509314
  36.6369526   2.1925398 -17.2829314  35.3199526   2.4945398 -17.9649314
  25.1919526   7.8045398  -5.6339314  25.9149526   8.4275398  -5.5659314
  25.6109526   6.9735398  -5.8559314  36.8019526   5.5055398  -1.3309314
  36.6409526   5.9695398  -2.1529314  36.3539526   6.0295398  -0.6679314
  32.3929526   4.4805398  -7.7099314  32.1419526   4.0675398  -8.5359314
  31.7669526   5.1965398  -7.5999314  22.5509526   1.9325398 -16.4469314
  23.0339526   1.7505398 -17.2529314  22.4559526   1.0775398 -16.0269314
  20.6009526   6.3895398  -4.1199314  21.5369526   6.3205398  -3.9329314
  20.3539526   5.5205398  -4.4359314  32.2569526   3.6295398 -17.6719314
  31.3459526   3.3385398 -17.6559314  32.4779526   3.6755398 -18.6019314
  28.2439526   5.6365398 -12.9349314  28.5089526   5.4095398 -13.8259314
  28.6259526   6.5005398 -12.7829314  24.1439526   5.3315398   8.7220686
  23.4829526   5.5795398   9.3680686  23.6419526   4.9645398   7.9940686
  23.1369526 -16.9654602  -3.7119314  23.1709526 -17.0194602  -2.7569314
  22.5429526 -16.2354602  -3.8889314   9.9699526   5.9335398  -7.2159314
   9.1139526   5.5085398  -7.2679314  10.3579526   5.8005398  -8.0799314
  35.7819526  -2.3284602 -15.6209314  36.6499526  -2.7064602 -15.7659314
  35.2519526  -2.6614602 -16.3449314  34.4099526  -2.6394602 -17.9409314
  34.9029526  -2.3544602 -18.7109314  34.4369526  -3.5954602 -17.9789314
   7.2609526   4.3425398 -15.8409314   7.6929526   3.8005398 -16.5019314
   7.9339526   4.9635398 -15.5629314  28.9969526  -1.2644602 -11.1969314
  28.8819526  -2.2084602 -11.0939314  29.5019526  -1.1704602 -12.0039314
  27.9109526   4.2525398  -7.9369314  27.6939526   4.4155398  -8.8549314
  27.8859526   5.1165398  -7.5269314  34.4469526 -20.3494602 -13.2159314
  34.7209526 -19.8664602 -13.9959314  35.1039526 -21.0384602 -13.1169314
  25.5829526  -0.6364602  -8.1429314  25.3799526  -1.2664602  -8.8339314
  24.9609526   0.0775398  -8.2779314  34.6829526   7.3935398  -9.0449314
  34.5419526   7.8415398  -8.2109314  35.5919526   7.0975398  -9.0089314
  36.5949526 -11.9204602 -15.5439314  36.3269526 -12.0884602 -16.4469314
  37.4289526 -12.3804602 -15.4509314  32.0299526   7.0225398  -6.5889314
  32.7579526   6.5365398  -6.2019314  32.4399526   7.7825398  -7.0009314
  33.3509526  -0.9534602  -2.9499314  33.0499526  -1.7934602  -3.2959314
  34.2419526  -1.1254602  -2.6449314   8.0109526   8.4295398  -9.5349314
   8.5089526   7.8685398 -10.1309314   7.1679526   8.5535398  -9.9709314
   7.2189526 -21.2504602 -13.3389314   7.2239526 -21.3224602 -14.2939314
   7.7639526 -21.9784602 -13.0409314  27.1959526   4.7845398 -10.5259314
  27.4729526   4.8395398 -11.4399314  26.9689526   5.6835398 -10.2889314
  30.7279526   7.6545398   7.8910686  30.9529526   7.1265398   8.6570686
  30.8049526   8.5595398   8.1930686  24.8929526 -20.0314602 -17.4679314
  24.9079526 -20.2214602 -16.5299314  25.0859526 -20.8714602 -17.8859314
  28.3749526  -0.0884602 -16.2799314  29.2809526   0.0725398 -16.0169314
  28.0189526   0.7815398 -16.4569314  31.9239526  -3.3944602  -3.9529314
  32.2079526  -4.2544602  -3.6449314  31.3529526  -3.0674602  -3.2579314
  33.0299526   1.5475398  -9.3089314  32.1309526   1.3695398  -9.0339314
  32.9679526   2.3495398  -9.8279314  14.9359526 -16.8754602   9.3480686
  15.3109526 -16.7904602  10.2240686  14.4529526 -17.7014602   9.3720686
   7.6409526   1.5035398 -11.0969314   7.2759526   1.9085398 -11.8829314
   6.9469526   1.5815398 -10.4419314  28.1819526 -18.6824602   8.2350686
  28.7189526 -19.2634602   8.7740686  28.7959526 -18.0264602   7.9040686
  26.1839526   3.7265398  -1.8519314  25.9349526   3.9915398  -0.9669314
  25.6089526   2.9875398  -2.0519314  31.7789526   4.9665398   4.5060686
  32.5509526   4.8785398   3.9470686  31.1109526   4.4285398   4.0800686
  33.1689526   7.1265398 -14.1559314  33.6079526   7.4165398 -13.3559314
  33.6209526   6.3175398 -14.3969314  29.0889526   6.0175398 -18.4649314
  30.0139526   6.0825398 -18.7019314  28.8179526   5.1595398 -18.7919314
  24.7029526  -0.7844602 -16.2589314  24.5049526  -1.6354602 -16.6509314
  24.8629526  -0.2084602 -17.0059314  35.7929526   1.7065398   0.8260686
  36.6469526   2.1075398   0.6670686  35.1719526   2.2765398   0.3710686
  26.2739526   0.8625398  -0.1099314  25.9659526   0.5225398   0.7300686
  25.4859526   0.9175398  -0.6499314  36.0159526  -2.1744602   9.6300686
  35.5839526  -2.4994602   8.8400686  36.8349526  -2.6664602   9.6760686
  29.5429526   1.3025398   4.9040686  30.3799526   1.7675398   4.9240686
  29.0109526   1.7925398   4.2770686  36.4229526  -1.4224602  -9.8719314
  37.2289526  -1.0214602 -10.1979314  35.8029526  -1.3344602 -10.5959314
  36.8289526 -20.2794602   3.2440686  37.0619526 -20.9314602   2.5830686
  35.8869526 -20.3944602   3.3730686  33.4909526 -11.4004602  10.1870686
  33.4709526 -10.8494602  10.9690686  33.3429526 -10.7924602   9.4620686
  36.1899526   4.9025398   6.5030686  35.6139526   4.9565398   7.2650686
  35.6819526   4.4175398   5.8520686  34.5189526   3.0995398   5.0810686
  33.7039526   3.0115398   4.5880686  34.4579526   2.4335398   5.7660686
  33.5419526  -3.2864602   4.4970686  33.6879526  -2.4554602   4.0460686
  32.6069526  -3.4604602   4.3860686  33.7179526 -16.3604602  10.6730686
  32.8939526 -16.7574602  10.3910686  33.7129526 -15.4904602  10.2740686
  30.9669526   0.2365398   7.6970686  31.6529526   0.7175398   7.2350686
  30.1829526   0.7755398   7.5890686  35.1569526  -6.5204602   0.7080686
  35.1639526  -5.5854602   0.5000686  34.2789526  -6.6834602   1.0510686
  33.1539526  -3.9914602   9.3880686  33.8439526  -4.6214602   9.1830686
  33.5149526  -3.1454602   9.1230686  36.9959526   6.5035398   2.3830686
  36.4659526   6.8525398   3.1000686  37.1319526   5.5835398   2.6100686
  34.6459526   1.7715398   8.9720686  35.2849526   2.2715398   9.4790686
  35.1489526   1.4075398   8.2440686  34.8999526  -3.6114602   7.1550686
  34.4499526  -3.2254602   6.4040686  34.9609526  -4.5434602   6.9450686
  27.9129526  -1.0904602   5.0630686  28.5319526  -0.3634602   5.1280686
  27.8999526  -1.3114602   4.1310686  33.2069526 -20.8524602   7.0560686
  32.9769526 -21.4414602   6.3380686  33.9999526 -21.2324602   7.4340686
  31.1879526  -9.2734602   9.9020686  30.7949526  -8.4004602   9.8940686
  30.4509526  -9.8664602  10.0520686  10.8859526 -18.8894602 -17.9469314
  10.2489526 -18.4314602 -18.4959314  10.3589526 -19.4754602 -17.4049314
  36.1679526   0.4805398   7.0110686  36.8829526  -0.0234602   7.4000686
  36.5589526   0.8985398   6.2440686  33.5479526   0.5735398   6.3420686
  34.3899526   0.1565398   6.5250686  33.2259526   0.1285398   5.5570686
  31.3599526   7.6855398   5.1800686  31.3769526   7.4195398   6.0990686
  31.5599526   6.8855398   4.6950686  26.4869526   1.2985398   5.7550686
  26.5979526   0.5765398   5.1360686  27.2019526   1.1905398   6.3810686
  27.8279526 -17.6274602   0.7640686  27.9529526 -17.5774602  -0.1829314
  28.6989526 -17.4764602   1.1300686  36.1099526   7.2835398   4.8500686
  36.9519526   7.6345398   5.1420686  35.9359526   6.5525398   5.4430686
  23.9259526 -20.3194602   7.6070686  24.5659526 -20.9344602   7.9670686
  24.2129526 -19.4624602   7.9220686  33.2479526   4.8745398 -15.5739314
  32.7569526   5.6835398 -15.4309314  32.8999526   4.5255398 -16.3939314
  24.1299526   6.8825398   5.3350686  24.6709526   6.9765398   6.1190686
  24.2649526   5.9765398   5.0580686  30.7099526   3.4235398   2.5930686
  29.9419526   3.0695398   2.1440686  31.2399526   3.8085398   1.8950686
  28.3429526   1.9875398   1.3050686  27.6079526   1.5525398   0.8740686
  27.9459526   2.4635398   2.0340686  31.5119526 -12.1134602   0.6330686
  32.3429526 -11.8984602   1.0570686  30.8439526 -11.7724602   1.2280686
   9.7939526  -0.3684602 -18.9479314   8.9529526   0.0895398 -18.9389314
   9.9799526  -0.5084602 -19.8769314  25.6639526   5.0435398   0.4960686
  26.4869526   5.4765398   0.7220686  25.0249526   5.4085398   1.1070686
  31.0479526 -19.8624602   3.8790686  30.1739526 -19.5834602   4.1540686
  31.0909526 -20.7884602   4.1180686  35.8959526  -5.4034602   9.5560686
  36.5049526  -4.6744602   9.4410686  36.4569526  -6.1744602   9.6390686
  30.6829526  -1.0834602 -13.3799314  31.5449526  -1.4824602 -13.2609314
  30.7139526  -0.6994602 -14.2559314  28.1089526   0.4265398  -2.1369314
  27.7309526   0.5315398  -1.2629314  28.5469526   1.2595398  -2.3109314
  36.4479526 -15.0634602   2.2590686  36.0589526 -15.3584602   1.4360686
  36.1159526 -15.6764602   2.9150686  31.6559526   6.3835398  10.1050686
  32.0179526   5.5385398   9.8390686  32.2719526   6.7135398  10.7590686
  29.4059526 -20.9264602 -19.4629314  29.9389526 -21.2034602 -18.7179314
  30.0419526 -20.7124602 -20.1459314  23.1179526   7.7305398  -0.8929314
  22.1809526   7.6435398  -1.0699314  23.2259526   7.3955398  -0.0029314
  27.4759526   2.6785398   3.7210686  27.1729526   3.5775398   3.8470686
  26.9289526   2.1565398   4.3080686   7.9589526 -15.3124602 -18.5779314
   8.2879526 -14.8584602 -19.3539314   8.7029526 -15.3314602 -17.9769314
  20.2039526   7.7175398  -1.3789314  20.5109526   7.1285398  -2.0679314
  19.4349526   8.1455398  -1.7549314  28.3779526 -16.2664602  40.4480686
  27.6309526 -16.5754602  40.9610686  28.0099526 -15.6034602  39.8640686
  28.2149526 -20.3804602  32.2520686  28.0549526 -21.2294602  31.8400686
  28.7249526 -19.8914602  31.6060686  13.8009526  -2.8194602  31.9870686
  13.4739526  -2.1644602  32.6050686  14.7429526  -2.6564602  31.9420686
  18.9749526  -9.5614602  22.5980686  18.3799526 -10.2844602  22.7970686
  19.8469526  -9.9534602  22.6260686  12.9689526 -14.5604602  19.2180686
  12.5039526 -15.3574602  18.9650686  12.9929526 -14.0334602  18.4190686
  22.1949526  -3.7014602  26.1220686  21.3839526  -3.8834602  25.6470686
  22.8799526  -3.7574602  25.4550686  16.1539526 -12.8474602  28.3430686
  15.5479526 -13.2804602  28.9450686  16.4839526 -13.5534602  27.7870686
  18.3159526 -10.1814602  16.2210686  17.7319526  -9.7314602  16.8310686
  18.7689526 -10.8324602  16.7570686  24.5569526  -6.3024602  28.4250686
  25.0379526  -6.3854602  29.2490686  25.2219526  -6.4214602  27.7470686
  29.1699526 -12.0254602  16.8530686  29.0809526 -11.7914602  15.9290686
  29.8289526 -11.4184602  17.1910686  12.7049526  -7.8434602  19.4670686
  12.8549526  -7.8124602  20.4120686  11.8439526  -7.4434602  19.3470686
  36.3979526  -2.5694602  25.7190686  36.7379526  -1.9964602  26.4070686
  36.9879526  -2.4314602  24.9780686   9.6229526 -14.3664602  39.3640686
  10.3639526 -13.9544602  39.8100686   9.9529526 -14.5694602  38.4890686
  35.1269526 -15.9664602  16.0660686  34.1869526 -15.8464602  15.9300686
  35.3059526 -16.8504602  15.7470686  25.5219526 -16.6724602  35.5630686
  25.2049526 -17.0154602  36.3980686  25.4619526 -17.4134602  34.9600686
  35.8899526 -11.5904602  26.2900686  34.9509526 -11.5294602  26.1160686
  35.9469526 -11.9334602  27.1820686  25.0679526  -7.0734602  21.1820686
  24.3419526  -7.1654602  20.5650686  24.7939526  -7.5734602  21.9510686
  16.7449526   2.4735398  40.7030686  16.1379526   3.0645398  40.2580686
  17.6129526   2.8175398  40.4920686  21.6209526   4.5195398  12.4080686
  22.2449526   4.5135398  11.6820686  22.0619526   4.0345398  13.1060686
   8.6789526 -13.6614602  15.6550686   9.0029526 -14.4494602  15.2200686
   9.4649526 -13.2354602  15.9980686  11.4679526 -19.8344602  27.1550686
  10.5369526 -19.6974602  26.9810686  11.8579526 -19.9584602  26.2900686
  24.0679526  -7.1484602  38.9020686  24.9099526  -7.5464602  39.1230686
  24.2309526  -6.6834602  38.0810686  18.1089526 -19.3484602  28.6630686
  17.8469526 -18.4274602  28.6560686  18.7819526 -19.4014602  29.3410686
  22.2449526 -20.8494602  19.3890686  21.8549526 -20.1014602  18.9370686
  22.1799526 -21.5694602  18.7620686  22.5089526  -7.4944602  23.6120686
  21.8999526  -7.5484602  24.3490686  21.9579526  -7.2734602  22.8610686
  19.3669526 -12.4534602  37.4770686  18.9659526 -11.7024602  37.0410686
  20.0759526 -12.0774602  37.9990686  35.6249526  -5.9584602  18.1600686
  35.5389526  -5.3804602  17.4020686  35.2779526  -5.4484602  18.8920686
  15.4439526 -15.1454602  14.0190686  16.1079526 -14.6234602  13.5690686
  15.0779526 -14.5524602  14.6760686  31.4749526 -12.1184602  27.8820686
  31.8109526 -13.0114602  27.8120686  31.3809526 -11.9704602  28.8230686
  16.1759526 -18.7224602  22.8180686  16.3559526 -18.2664602  21.9960686
  16.8629526 -18.4234602  23.4150686  22.9409526  -7.5364602  19.5280686
  22.2549526  -6.9634602  19.1860686  22.4919526  -8.3584602  19.7250686
  14.7389526  -4.2284602  23.0190686  14.2229526  -3.6354602  23.5660686
  14.7039526  -5.0684602  23.4770686  29.5449526 -17.9244602  13.1810686
  28.7719526 -17.9544602  12.6170686  29.8879526 -17.0374602  13.0700686
  28.3189526  -1.0284602  25.4640686  27.9659526  -0.4914602  26.1740686
  29.0379526  -0.5084602  25.1040686  14.2979526 -13.3264602  40.3690686
  14.4499526 -12.7874602  41.1450686  15.1549526 -13.3884602  39.9480686
  17.4999526   4.3545398  37.3120686  17.4919526   4.7535398  36.4420686
  16.7059526   4.6835398  37.7340686  11.7769526 -17.9184602  22.8640686
  10.9239526 -17.5794602  22.5900686  12.3209526 -17.1384602  22.9710686
  20.2369526  -9.2104602  37.5750686  20.6639526  -9.4824602  36.7620686
  20.9519526  -9.1254602  38.2050686  22.6609526 -17.0274602  33.7250686
  23.2129526 -16.3864602  33.2770686  22.3569526 -17.6104602  33.0300686
  19.0319526 -16.5984602  28.9480686  19.9009526 -16.2124602  28.8410686
  18.8559526 -16.5374602  29.8870686  16.4809526 -15.5314602  24.0770686
  15.5579526 -15.7084602  24.2580686  16.6349526 -15.9194602  23.2160686
  19.8169526 -16.7874602  23.5520686  20.6459526 -17.2534602  23.4400686
  19.4599526 -17.1284602  24.3730686  18.0089526  -6.0144602  22.4180686
  17.1609526  -6.4214602  22.2420686  17.8189526  -5.0774602  22.4730686
  18.3679526 -12.8774602  19.8670686  18.4309526 -13.5864602  20.5080686
  17.7629526 -12.2504602  20.2610686  13.0969526 -20.6494602  14.9800686
  13.9459526 -21.0584602  14.8110686  13.2509526 -19.7144602  14.8480686
  16.5019526 -12.8084602  17.0810686  16.9909526 -13.0744602  17.8600686
  17.1089526 -12.2474602  16.5980686  18.0579526  -3.1334602  26.4830686
  18.6929526  -3.6464602  25.9830686  17.2289526  -3.5964602  26.3660686
  16.1629526 -11.4484602  20.4960686  16.3989526 -11.2084602  21.3920686
  15.2299526 -11.6594602  20.5420686   9.8539526 -11.2084602  26.4560686
   9.2879526 -10.7364602  25.8450686   9.2479526 -11.6614602  27.0430686
  10.8829526 -15.6004602  29.0630686  11.6259526 -16.1354602  28.7850686
  10.1319526 -15.9754602  28.6020686  14.3549526 -16.0424602  21.2870686
  13.7399526 -15.4644602  20.8350686  14.7309526 -16.5834602  20.5930686
  11.5799526 -17.2144602  19.1280686  10.9089526 -17.8524602  19.3680686
  11.8419526 -17.4624602  18.2420686  25.2959526 -10.3324602  21.6090686
  25.8799526 -10.3714602  20.8520686  24.4189526 -10.4354602  21.2420686
  19.7059526 -18.7874602  13.1630686  19.3379526 -18.4174602  12.3610686
  20.3649526 -18.1504602  13.4410686  30.7689526  -2.2784602  36.1400686
  30.0349526  -2.5834602  36.6720686  31.1649526  -1.5764602  36.6570686
  11.0859526 -11.4974602  29.7530686  11.7959526 -12.0404602  29.4090686
  11.2259526 -10.6384602  29.3540686  20.6949526 -11.8364602  13.6850686
  21.1719526 -12.5834602  14.0450686  21.3109526 -11.1054602  13.7480686
  17.7709526 -10.2444602  10.9920686  18.0529526  -9.5644602  10.3800686
  17.6839526  -9.7904602  11.8310686  22.7289526 -14.9174602  19.5040686
  22.7099526 -14.9174602  20.4610686  23.6309526 -14.6834602  19.2830686
  25.9269526  -1.8404602  24.2060686  26.7429526  -1.7214602  24.6910686
  26.1329526  -1.5584602  23.3150686  14.4469526  -6.5814602  24.6230686
  13.8309526  -6.8684602  25.2970686  14.8019526  -7.3944602  24.2620686
  29.2489526  -9.5484602  19.2110686  29.2929526  -8.5974602  19.1190686
  29.9079526  -9.8804602  18.6010686   8.6659526 -19.6924602  22.8960686
   8.7599526 -20.1314602  22.0510686   8.8709526 -18.7754602  22.7150686
  16.8879526  -7.9664602  31.2190686  17.0019526  -8.9164602  31.2070686
  17.3149526  -7.6634602  30.4170686  12.9679526 -10.3954602  38.8700686
  13.7749526 -10.3204602  39.3780686  12.2859526 -10.5534602  39.5230686
  17.2329526 -12.9854602  13.4630686  17.8899526 -12.9244602  12.7700686
  17.6839526 -12.6764602  14.2490686  11.7969526  -6.1094602  33.6450686
  11.6539526  -5.6294602  32.8290686  12.0609526  -5.4384602  34.2740686
  17.0629526 -19.9084602  19.6830686  17.9759526 -19.7454602  19.4460686
  17.1059526 -20.2744602  20.5660686  19.6059526 -12.1374602  17.5610686
  20.0139526 -12.5734602  16.8120686  19.7079526 -12.7564602  18.2840686
  27.7719526  -6.9744602  21.3750686  27.5599526  -6.5574602  22.2100686
  26.9209526  -7.1734602  20.9840686  25.3409526 -10.7164602  38.1140686
  25.0299526 -10.6564602  37.2110686  26.2889526 -10.6024602  38.0500686
  12.1559526  -9.3314602  28.6620686  12.9219526  -9.8134602  28.3500686
  11.7789526  -8.9434602  27.8720686  11.5599526 -14.5384602  31.6120686
  11.4659526 -14.8124602  30.6990686  11.5499526 -13.5824602  31.5780686
  23.8889526 -12.6924602  32.4300686  23.2159526 -13.2664602  32.0640686
  24.4739526 -13.2814602  32.9060686  24.4239526 -20.2144602  27.8890686
  24.2359526 -19.3644602  28.2870686  23.6819526 -20.7654602  28.1370686
  15.5919526 -17.3914602  19.1290686  15.9529526 -17.0754602  18.3010686
  16.0709526 -18.2014602  19.3060686  11.2619526 -13.4894602  17.0750686
  10.6899526 -13.1984602  17.7850686  11.4129526 -12.7034602  16.5500686
  28.0209526 -13.4074602  28.3700686  27.5799526 -13.0894602  29.1580686
  28.3859526 -12.6204602  27.9650686  16.8619526 -18.6454602  16.1580686
  17.7109526 -18.7944602  16.5760686  16.8899526 -19.1744602  15.3610686
  16.1159526  -5.1304602  26.1270686  15.8189526  -5.5194602  26.9490686
  15.4929526  -5.4484602  25.4730686  32.0349526 -10.8204602  32.9510686
  31.4959526 -11.3894602  33.5000686  31.4379526 -10.1304602  32.6600686
  20.0819526 -15.4504602  31.4220686  20.3569526 -14.5364602  31.3510686
  20.5449526 -15.7804602  32.1920686  21.0819526 -11.5104602  39.6130686
  21.8089526 -12.0704602  39.8850686  21.4439526 -10.9754602  38.9060686
  22.0969526 -14.4124602  38.5650686  22.3219526 -14.4874602  39.4920686
  21.2399526 -14.8324602  38.4910686  32.0169526  -6.2094602  20.1040686
  32.4059526  -6.9424602  20.5820686  32.4179526  -6.2484602  19.2360686
  12.8319526  -9.9794602  22.8030686  12.5999526  -9.7604602  23.7060686
  13.6749526  -9.5494602  22.6620686  36.1609526 -19.1614602  24.0970686
  36.2799526 -18.8064602  24.9780686  37.0499526 -19.3024602  23.7720686
  22.4369526 -13.6674602  24.0870686  22.5959526 -14.3874602  23.4770686
  23.3099526 -13.4014602  24.3760686   8.2899526  -3.7174602  39.9660686
   8.9949526  -3.4314602  40.5460686   8.7369526  -4.1594602  39.2450686
  11.1709526 -10.5574602  20.7080686  10.4479526  -9.9464602  20.8450686
  11.7769526 -10.3774602  21.4280686   9.5599526 -19.2604602  20.0030686
   9.0109526 -18.5224602  19.7360686   8.9719526 -20.0154602  19.9840686
  19.6639526  -7.3384602  27.2580686  19.7779526  -7.7844602  26.4180686
  20.4829526  -6.8604602  27.3890686  22.8009526  -9.4664602  38.5420686
  23.6379526  -9.9264602  38.6150686  23.0029526  -8.5624602  38.7840686
  15.1349526  -3.2454602  27.7870686  14.9029526  -3.9524602  28.3890686
  15.3319526  -3.6884602  26.9620686  15.1099526 -20.4784602  24.5800686
  15.2769526 -19.7254602  24.0130686  15.6749526 -20.3354602  25.3410686
  26.0809526 -13.1824602  16.4860686  26.9989526 -13.1514602  16.7570686
  25.9349526 -14.0944602  16.2370686  22.7249526  -9.8784602  14.2400686
  23.5449526 -10.3554602  14.3630686  22.5539526  -9.4704602  15.0900686
  20.7109526  -6.4714602  21.7730686  19.9259526  -6.1594602  22.2230686
  20.5909526  -6.1984602  20.8640686  13.8249526 -11.1204602  27.4290686
  14.7609526 -11.3174602  27.3910686  13.4209526 -11.9314602  27.7380686
  20.5339526 -20.9654602  15.6420686  21.3509526 -20.9864602  16.1390686
  20.8079526 -21.0194602  14.7260686  18.9509526 -12.6584602  11.3350686
  18.5629526 -11.8274602  11.0630686  19.8949526 -12.5034602  11.3090686
  21.1449526  -0.8234602  30.3820686  20.2719526  -1.0094602  30.7260686
  21.2039526  -1.3484602  29.5830686  15.8719526  -6.7024602  21.0290686
  14.9889526  -6.8574602  21.3660686  15.8199526  -5.8434602  20.6090686
  32.8659526  -5.9524602  26.1120686  33.6849526  -6.0774602  25.6330686
  32.9209526  -6.5654602  26.8450686  21.8219526 -16.4994602  17.2530686
  22.3779526 -17.2754602  17.1840686  22.3579526 -15.8604602  17.7230686
  21.8309526  -3.1554602  39.3590686  22.1139526  -2.2804602  39.0900686
  22.3509526  -3.3464602  40.1390686  21.8919526  -6.0364602  27.3780686
  22.0029526  -5.2284602  26.8770686  22.7629526  -6.2234602  27.7280686
  14.8179526  -8.2774602  37.2850686  14.5899526  -8.7944602  38.0580686
  15.5159526  -7.6944602  37.5820686  25.8959526  -2.8844602  40.0590686
  26.2639526  -3.7664602  40.0080686  26.5879526  -2.3154602  39.7220686
  34.5429526  -9.0484602  23.1680686  34.0579526  -9.8684602  23.2550686
  35.4059526  -9.3124602  22.8490686  26.8939526 -10.5764602  19.3360686
  27.7969526 -10.2674602  19.2580686  26.3789526  -9.9404602  18.8390686
  20.7659526  -9.4894602  18.8280686  20.0479526  -9.0824602  19.3140686
  20.4809526 -10.3924602  18.6910686  11.5219526 -21.5594602  19.6690686
  12.0439526 -21.2004602  20.3860686  10.7979526 -20.9414602  19.5660686
  20.5819526 -11.2814602  25.9380686  21.2079526 -10.5674602  26.0580686
  21.1009526 -11.9944602  25.5630686  35.8919526 -14.7774602  25.6340686
  35.6849526 -15.1894602  24.7960686  35.0679526 -14.3784602  25.9150686
  13.4409526  -8.9994602  31.3190686  12.8539526  -8.8934602  30.5700686
  13.8979526  -8.1614602  31.3860686   9.2839526 -19.0964602  25.5370686
   9.0759526 -19.5144602  24.7010686   9.8489526 -18.3594602  25.3020686
  27.4439526 -20.3374602  24.9110686  28.3349526 -20.4644602  24.5850686
  27.4179526 -19.4204602  25.1860686  13.0509526 -20.2334602  21.3560686
  13.7989526 -19.6384602  21.4000686  12.2919526 -19.6794602  21.5400686
  21.1269526 -12.2274602  20.5490686  20.1759526 -12.3014602  20.4670686
  21.4669526 -13.0104602  20.1150686  20.9309526  -5.5364602  30.4320686
  20.4729526  -5.9234602  29.6860686  21.2429526  -4.6904602  30.1080686
  25.0159526  -7.6344602  24.6570686  24.0629526  -7.6144602  24.7370686
  25.3349526  -7.3854602  25.5250686  25.0539526 -16.7514602  10.8510686
  24.1419526 -16.4834602  10.9670686  25.2879526 -17.1704602  11.6800686
  27.8749526  -9.5694602  28.1180686  28.4209526 -10.2824602  27.7870686
  28.0009526  -8.8584602  27.4890686  23.1859526 -10.7824602  20.0990686
  22.3969526 -11.1714602  20.4760686  23.4229526 -11.3674602  19.3800686
  23.8919526  -0.9624602  26.4860686  24.6309526  -1.5564602  26.3550686
  23.8099526  -0.4934602  25.6550686  13.4719526 -17.6514602  16.7950686
  13.9139526 -17.3684602  17.5950686  13.8669526 -17.1214602  16.1020686
  24.9119526 -10.8584602  35.2310686  24.1409526 -11.3214602  34.9030686
  25.6489526 -11.2744602  34.7850686  34.2429526  -8.4424602  27.0470686
  34.5909526  -9.0284602  27.7190686  33.5609526  -8.9544602  26.6120686
  35.5719526 -10.5944602  20.1580686  35.9859526 -10.3544602  20.9870686
  35.9919526 -10.0314602  19.5080686  13.5219526 -12.2884602  20.1850686
  12.7439526 -11.7334602  20.1280686  13.2829526 -13.0864602  19.7130686
  25.0639526 -11.3334602  14.8570686  25.6539526 -10.5894602  14.9820686
  25.3159526 -11.9564602  15.5380686  21.6539526 -10.1974602  23.0220686
  22.4029526  -9.6074602  22.9330686  21.9319526 -11.0044602  22.5880686
  24.9469526 -15.7324602  16.8370686  25.8639526 -15.9174602  16.6350686
  24.4579526 -16.1224602  16.1130686  31.9109526 -14.0994602  19.1270686
  32.0209526 -14.7984602  18.4820686  32.5889526 -13.4614602  18.9070686
  16.7399526  -9.6874602  18.3930686  17.4939526  -9.2514602  18.7900686
  16.3679526 -10.2154602  19.0990686  24.9309526 -10.1964602  31.5900686
  24.6679526 -11.0324602  31.9740686  24.1139526  -9.7064602  31.4970686
  23.4969526 -17.9004602  29.5650686  24.1999526 -17.2504602  29.5620686
  23.2869526 -18.0224602  30.4910686  18.7349526 -13.4024602  34.1240686
  19.0099526 -14.0354602  34.7880686  19.0209526 -12.5564602  34.4680686
  25.4289526 -12.8934602  27.5330686  25.2849526 -12.0784602  28.0140686
  26.3449526 -13.1134602  27.7020686  14.9139526 -11.8244602  12.4190686
  15.7889526 -12.1344602  12.6510686  14.4599526 -11.7354602  13.2570686
  14.5569526 -11.9754602  37.0060686  14.1689526 -11.3784602  37.6460686
  14.9589526 -11.4014602  36.3550686  20.5779526 -13.1694602  28.2990686
  19.6619526 -13.0564602  28.5550686  20.8079526 -12.3494602  27.8620686
  34.2229526  -8.0394602  17.0930686  33.3029526  -7.8054602  16.9710686
  34.6209526  -7.2554602  17.4710686  12.4819526 -11.6924602  32.0610686
  11.5779526 -11.4454602  32.2550686  12.9719526 -10.8724602  32.1160686
  22.7889526  -7.8834602  32.0260686  22.0189526  -7.3174602  31.9700686
  22.8349526  -8.1354602  32.9480686  12.4659526 -15.6784602  15.0570686
  13.0279526 -14.9364602  14.8340686  12.2169526 -15.5254602  15.9690686
  28.5899526  -0.6384602  32.1800686  28.6199526   0.3155398  32.1060686
  28.3069526  -0.9364602  31.3160686  23.2889526  -8.7454602  34.8440686
  24.0419526  -9.1484602  35.2760686  22.5979526  -9.4064602  34.9000686
  27.3979526  -8.8474602  32.0370686  26.6559526  -8.8224602  32.6400686
  27.1239526  -8.3064602  31.2960686  30.6769526 -10.2534602  13.8580686
  29.7849526  -9.9074602  13.8400686  31.2019526  -9.5854602  13.4170686
  25.5069526  -6.7584602  31.2430686  25.9299526  -6.3374602  31.9920686
  24.6149526  -6.9374602  31.5410686  22.0659526  -6.3644602  34.4720686
  22.7209526  -5.8104602  34.0470686  22.5769526  -7.0314602  34.9300686
  27.2169526  -4.1154602  27.7740686  27.9469526  -3.5124602  27.6350686
  27.3549526  -4.4604602  28.6560686  24.8129526 -12.5144602  25.0480686
  25.2979526 -11.6894602  25.0500686  24.8529526 -12.8184602  25.9550686
  24.1489526 -17.2384602  14.2110686  24.4129526 -18.1014602  14.5300686
  23.4229526 -17.4164602  13.6120686  19.2329526  -8.4794602  33.9980686
  19.8859526  -8.3724602  33.3060686  18.9179526  -7.5924602  34.1700686
  16.3899526 -16.7804602  27.1960686  15.5679526 -16.7634602  26.7060686
  16.1209526 -16.8194602  28.1140686  17.3749526 -11.6424602  23.1150686
  17.9309526 -12.4144602  23.0070686  17.2729526 -11.5514602  24.0630686
  18.6099526 -10.8744602  35.1500686  18.8649526 -10.0414602  34.7520686
  17.8439526 -11.1544602  34.6490686  35.9209526 -14.2574602  12.8050686
  35.9599526 -14.5514602  13.7150686  36.6299526 -14.7324602  12.3700686
  19.9219526 -15.4334602  36.3730686  19.3119526 -14.7294602  36.5910686
  19.3799526 -16.0974602  35.9470686  29.1639526 -12.1424602  40.0010686
  30.0499526 -12.5024602  39.9480686  28.5899526 -12.8974602  39.8760686
  24.9269526 -15.7284602  28.8690686  25.8299526 -15.9094602  28.6060686
  24.8759526 -14.7734602  28.9120686  22.9859526  -2.1224602  35.3830686
  22.6779526  -2.6914602  36.0880686  23.9399526  -2.1394602  35.4600686
  19.3999526  -3.6914602  28.9920686  18.6899526  -3.7424602  28.3520686
  20.0499526  -3.1194602  28.5840686  28.6669526 -11.4364602  24.0750686
  27.8919526 -11.0144602  24.4460686  28.7899526 -11.0104602  23.2270686
  10.1329526  -8.6564602  36.1260686  10.6249526  -8.8044602  35.3190686
   9.8219526  -9.5254602  36.3810686  21.7699526   7.7095398  37.2180686
  22.4629526   8.2425398  36.8270686  21.4279526   8.2475398  37.9320686
  12.7539526 -13.3544602  28.7690686  13.3529526 -13.6504602  29.4550686
  12.2789526 -14.1434602  28.5090686  13.0009526 -15.2654602  33.6930686
  12.9539526 -16.2214602  33.6780686  12.3479526 -14.9824602  33.0540686
  19.1699526 -19.2414602  36.1720686  18.9849526 -19.1874602  37.1090686
  18.7649526 -18.4574602  35.8010686  10.5629526 -11.9264602  37.6640686
  10.7989526 -12.8124602  37.3900686  11.1879526 -11.7144602  38.3570686
  27.2059526 -17.6924602  25.5440686  27.6979526 -17.0284602  25.0610686
  26.3539526 -17.7234602  25.1090686  17.3799526  -4.6074602  36.7530686
  17.7029526  -5.1454602  36.0290686  17.6249526  -3.7134602  36.5150686
  12.7859526 -14.9684602  38.4820686  13.3629526 -14.7454602  37.7520686
  13.3199526 -14.8224602  39.2630686  16.1129526 -11.4294602  33.9200686
  15.4549526 -10.8364602  34.2830686  15.6269526 -12.2254602  33.7040686
   9.7259526 -12.3414602  23.1720686   9.2149526 -11.7204602  23.6900686
   9.0739526 -12.9224602  22.7820686  17.2099526 -19.7664602  13.9290686
  16.6599526 -19.6954602  13.1480686  18.0639526 -19.4354602  13.6510686
  22.6469526   4.0205398  36.8030686  21.9119526   3.4675398  36.5390686
  23.1799526   4.1045398  36.0120686  14.2449526 -14.3894602  36.0580686
  13.7639526 -14.5034602  35.2390686  14.3639526 -13.4434602  36.1370686
  21.4009526 -10.7094602  35.5170686  20.5629526 -10.8434602  35.0750686
  21.6999526 -11.5914602  35.7370686  31.8579526 -15.4594602  27.6630686
  30.9189526 -15.4994602  27.4810686  32.2719526 -15.7884602  26.8650686
  12.2469526 -10.0604602  25.6350686  11.4829526 -10.4804602  26.0290686
  12.9969526 -10.5064602  26.0300686  23.3949526  -3.6834602  29.1670686
  23.5599526  -2.9954602  28.5210686  23.7569526  -4.4754602  28.7710686
  18.5129526 -20.1154602  32.8810686  18.8879526 -20.2344602  33.7540686
  19.2629526 -19.9094602  32.3230686  11.4639526 -19.4944602  33.1090686
  12.1349526 -18.9424602  33.5120686  10.8439526 -18.8754602  32.7250686
  16.6359526  -6.6844602  38.5080686  17.0589526  -5.9194602  38.1170686
  16.1499526  -6.3344602  39.2550686   8.8649526 -20.9034602  39.4530686
   9.6649526 -20.4574602  39.7310686   8.1979526 -20.2164602  39.4450686
  19.8209526  -9.3154602  29.4750686  19.3189526 -10.1054602  29.2780686
  19.7419526  -8.7784602  28.6860686  10.1289526   6.4265398  39.0870686
  10.3559526   6.2325398  38.1770686   9.9949526   7.3735398  39.1040686
  15.9129526  -2.2504602  39.3900686  16.1499526  -2.7644602  40.1620686
  15.3179526  -1.5784602  39.7220686  17.9019526 -17.0194602  35.2230686
  17.0029526 -16.9564602  35.5460686  17.8119526 -17.0654602  34.2710686
  15.2489526 -10.1214602  40.0340686  16.1969526  -9.9914602  40.0420686
  15.0799526 -10.7074602  40.7720686  14.5009526 -13.2824602  33.0560686
  14.0939526 -14.1404602  33.1740686  13.9879526 -12.8664602  32.3630686
  13.0489526 -19.0434602  40.1690686  12.4929526 -19.1154602  40.9440686
  12.5649526 -19.5014602  39.4820686  36.0239526 -21.6244602  37.8850686
  36.3939526 -20.8804602  38.3600686  36.5489526 -21.6854602  37.0870686
  25.9169526 -17.9984602  32.8670686  25.9489526 -18.9124602  33.1510686
  26.4269526 -17.9814602  32.0570686  21.7479526 -19.8854602  34.8450686
  22.3889526 -19.9784602  35.5500686  20.9809526 -19.4994602  35.2680686
  16.3099526 -10.6974602  31.3180686  15.3859526 -10.5404602  31.1240686
  16.3179526 -10.9854602  32.2310686  15.2789526  -4.3764602  34.1070686
  16.1589526  -4.4614602  34.4730686  15.0649526  -3.4484602  34.2080686
  14.3009526 -13.5234602  15.9030686  13.7319526 -12.7714602  16.0680686
  15.0589526 -13.3804602  16.4690686  37.2059526 -13.3644602  21.9390686
  37.2829526 -14.2784602  21.6640686  36.3839526 -13.0654602  21.5510686
  28.1549526 -11.8894602  12.5310686  28.6229526 -12.5124602  13.0860686
  28.6349526 -11.8984602  11.7020686  13.9989526 -16.9594602  25.9880686
  13.5169526 -16.4074602  25.3730686  13.3719526 -17.1444602  26.6870686
  22.3409526 -13.2504602  35.8500686  21.6269526 -13.8834602  35.9210686
  22.8119526 -13.3254602  36.6800686   8.7069526 -11.8684602  35.7230686
   9.4159526 -11.9924602  36.3540686   9.1429526 -11.5614602  34.9290686
  22.5329526 -21.3684602  23.7460686  23.1979526 -22.0184602  23.9750686
  22.6779526 -20.6494602  24.3600686  31.1169526  -2.1494602  31.9270686
  31.3749526  -3.0334602  32.1890686  30.2619526  -2.0174602  32.3380686
  12.2049526 -17.5234602  37.3900686  11.2769526 -17.3884602  37.1990686
  12.4389526 -16.7994602  37.9700686  11.6579526  -8.7684602  33.8620686
  11.6169526  -7.8224602  34.0040686  11.9739526  -8.8614602  32.9630686
  28.6319526 -19.2504602  34.8230686  28.2849526 -19.4134602  33.9460686
  28.5329526 -20.0854602  35.2800686  22.4059526  -9.4744602  26.8510686
  22.0249526  -8.7164602  27.2950686  23.2629526  -9.5874602  27.2620686
  29.3829526  -3.7184602  34.3250686  29.2729526  -4.5034602  34.8620686
  29.8059526  -3.0874602  34.9060686  14.3009526  -9.7144602  34.9110686
  13.4599526  -9.3934602  34.5830686  14.6499526  -8.9884602  35.4270686
   7.2569526 -12.7214602  30.8880686   6.9729526 -13.5244602  31.3240686
   7.0709526 -12.0264602  31.5190686  18.4549526 -11.5994602  29.2720686
  17.8409526 -12.2574602  28.9470686  18.3029526 -11.5744602  30.2170686
  17.8669526 -11.5624602  25.8720686  18.7999526 -11.3694602  25.7780686
  17.8369526 -12.3404602  26.4280686  10.6469526 -14.3384602  36.5610686
  11.4469526 -14.8574602  36.6450686  10.5009526 -14.2744602  35.6170686
  26.9179526  -5.7804602  23.6040686  27.6769526  -5.8284602  24.1850686
  26.3839526  -6.5384602  23.8430686   8.0809526  -7.3494602  40.1560686
   8.6289526  -6.5854602  39.9740686   8.0389526  -7.3924602  41.1110686
  18.4359526  -8.3354602  39.4010686  17.7959526  -7.7884602  38.9460686
  18.9939526  -8.6824602  38.7050686  35.5229526 -20.2124602  28.2890686
  35.4659526 -21.1364602  28.5330686  35.4689526 -19.7414602  29.1210686
  24.0529526  -4.9154602  33.1470686  23.8969526  -3.9924602  33.3480686
  24.9529526  -4.9414602  32.8230686  34.0199526  -9.6214602  12.3780686
  34.0109526  -9.0464602  13.1440686  34.7239526 -10.2454602  12.5530686
  22.9239526 -18.2184602  12.0100686  23.4829526 -18.9944602  11.9720686
  22.5789526 -18.1274602  11.1220686   7.9649526 -18.1114602  34.4770686
   7.6459526 -18.9884602  34.2660686   8.7279526 -17.9904602  33.9110686
  20.9829526  -1.8094602  27.7670686  20.9099526  -1.0044602  27.2540686
  21.7949526  -2.2154602  27.4620686  17.6089526 -14.3514602  26.4440686
  17.6339526 -15.2054602  26.8760686  17.2309526 -14.5294602  25.5830686
  22.6479526 -17.3404602  36.6320686  21.9529526 -16.6824602  36.6430686
  22.8809526 -17.4284602  35.7080686  16.4679526 -13.4454602  38.7740686
  15.8919526 -13.3524602  38.0150686  17.2769526 -13.0034602  38.5170686
  15.0369526 -14.4324602  30.2530686  15.0139526 -15.3884602  30.2260686
  15.8769526 -14.2234602  30.6630686  25.5189526   7.8665398  38.8460686
  25.0329526   7.0485398  38.7430686  25.8199526   7.8545398  39.7550686
   8.2119526 -15.4754602  20.1580686   7.7389526 -15.2084602  19.3700686
   9.0109526 -14.9484602  20.1490686   9.2579526 -16.8524602  22.6070686
   8.7819526 -16.5114602  21.8500686   8.9339526 -16.3384602  23.3460686
  35.1429526   4.3605398  22.7220686  35.3389526   5.2015398  23.1350686
  34.1889526   4.3485398  22.6420686  20.9499526 -14.7904602  12.9870686
  20.1579526 -14.3274602  12.7110686  20.6409526 -15.4354602  13.6230686
  20.1809526 -16.4034602  15.1810686  20.7729526 -16.4124602  15.9330686
  19.4879526 -17.0214602  15.4140686  37.0989526   0.4125398  40.3730686
  36.4039526   0.4905398  41.0270686  37.0339526  -0.4884602  40.0590686
  31.4089526   3.1865398  24.6230686  31.9869526   2.4535398  24.4150686
  31.6389526   3.8625398  23.9850686  12.9419526   5.8585398  40.4560686
  12.3459526   6.0215398  39.7240686  12.4519526   5.2795398  41.0400686
  23.5269526  -2.4624602  31.7600686  23.5939526  -3.1734602  31.1230686
  22.7839526  -1.9394602  31.4590686  16.2569526 -16.0914602  16.2650686
  15.9409526 -15.8584602  15.3920686  16.5089526 -17.0114602  16.1920686
  17.2539526  -7.1934602  28.4500686  16.7959526  -8.0304602  28.3700686
  18.0269526  -7.2884602  27.8940686  19.9459526 -19.4774602  20.1250686
  20.7239526 -19.9734602  20.3810686  19.7289526 -18.9554602  20.8970686
  14.7679526  -5.8924602  28.7440686  14.4709526  -5.9234602  29.6530686
  15.5449526  -6.4514602  28.7250686  27.1759526 -18.4974602  11.9350686
  27.5229526 -19.1814602  11.3620686  26.3149526 -18.8214602  12.2000686
  35.2669526 -19.1074602  30.6680686  34.4649526 -19.3204602  31.1460686
  35.5189526 -18.2434602  30.9930686   8.0819526 -21.5344602  36.2540686
   8.8669526 -21.4634602  35.7110686   8.3319526 -21.1404602  37.0900686
  17.5229526 -20.0854602  26.2390686  17.6889526 -20.0574602  27.1820686
  17.7979526 -19.2254602  25.9220686  18.3989526  -2.3094602  35.8570686
  19.1299526  -2.1984602  35.2490686  18.5699526  -1.6774602  36.5550686
  33.4279526 -13.0084602  25.2240686  33.0219526 -12.1414602  25.2440686
  32.6899526 -13.6184602  25.2170686  19.5739526   4.4905398  39.7510686
  19.2489526   4.4465398  40.6500686  18.7909526   4.6325398  39.2190686
  20.7339526 -21.0864602  12.3640686  19.9529526 -21.3094602  11.8580686
  20.7389526 -20.1294602  12.3900686  10.2639526 -20.9464602  15.0910686
  11.2189526 -20.8794602  15.0850686   9.9679526 -20.1214602  15.4750686
  35.9449526   2.3835398  20.9790686  35.2229526   1.7605398  20.8890686
  35.6359526   3.0175398  21.6260686  16.8959526  -5.6534602  32.3110686
  15.9859526  -5.3784602  32.4190686  16.8389526  -6.5624602  32.0170686
  32.5539526   3.6415398  19.1000686  31.6669526   3.8895398  18.8410686
  32.9909526   3.4205398  18.2770686  31.5659526  -0.7014602  29.5410686
  32.4099526  -0.4374602  29.1740686  31.7919526  -1.2934602  30.2590686
  15.3309526  -1.8044602  35.7800686  15.1379526  -2.3444602  36.5470686
  16.2859526  -1.8054602  35.7200686  20.0409526 -20.2244602  23.0520686
  20.6639526 -20.9244602  23.2490686  19.1969526 -20.5654602  23.3470686
  36.9329526   5.3665398  19.4660686  36.3269526   4.6685398  19.2130686
  37.5219526   4.9545398  20.0980686  35.9089526   7.4335398  30.0650686
  36.4399526   7.2685398  30.8440686  35.0069526   7.3095398  30.3590686
  14.2899526 -19.3444602  30.3140686  14.8419526 -20.1104602  30.1570686
  13.5389526 -19.6854602  30.8010686  18.5339526  -5.6654602  34.4610686
  19.1779526  -5.1404602  33.9850686  17.8759526  -5.8914602  33.8040686
  21.5909526  -8.6774602  16.3890686  21.4629526  -8.8554602  17.3210686
  20.7079526  -8.6884602  16.0190686  26.1159526  -6.8314602  16.1230686
  26.2689526  -5.9884602  16.5490686  25.9119526  -7.4294602  16.8420686
  16.8599526   1.0715398  37.1970686  16.3729526   1.1095398  36.3730686
  16.8229526   1.9645398  37.5390686  34.4429526 -21.2194602  23.3500686
  34.5999526 -21.8564602  24.0470686  35.0269526 -20.4894602  23.5560686
  31.7529526  -1.9544602  23.0020686  31.9949526  -2.6634602  23.5970686
  31.2809526  -2.3884602  22.2910686  32.3099526  -6.6634602  11.8700686
  32.4079526  -7.4434602  11.3230686  31.5269526  -6.2284602  11.5290686
  15.4479526 -17.3514602  12.3770686  15.5389526 -16.7084602  13.0800686
  14.6269526 -17.8054602  12.5710686  24.4779526   0.8345398  37.9430686
  24.7289526   1.3435398  38.7140686  25.2109526   0.9415398  37.3360686
  33.0139526   1.2315398  23.7210686  32.8179526   1.2145398  22.7840686
  33.1719526   0.3165398  23.9510686  36.6989526   6.3385398  25.8400686
  37.1949526   5.6045398  25.4760686  37.3549526   7.0175398  25.9980686
  29.4559526  -6.8994602  19.2050686  28.8299526  -6.8634602  19.9280686
  30.2279526  -6.4374602  19.5330686  10.5309526 -15.3484602  12.4220686
  11.0929526 -14.6814602  12.0270686  11.0659526 -15.7304602  13.1180686
  24.1019526   2.0685398  10.6160686  24.5569526   2.8385398  10.9570686
  23.2309526   2.3885398  10.3800686  14.2849526   0.9455398  38.6300686
  13.6979526   0.8355398  37.8820686  15.1639526   0.8705398  38.2570686
  25.3489526  -8.9314602  17.9530686  24.7969526  -9.5594602  17.4870686
  24.7489526  -8.4794602  18.5460686   7.2269526 -17.9704602  16.3540686
   7.0819526 -18.8844602  16.1120686   7.1629526 -17.9624602  17.3090686
  22.4299526  -0.6764602  38.6510686  21.7979526  -0.0004602  38.4090686
  23.2699526  -0.3454602  38.3310686  26.9939526 -21.2384602  36.8320686
  26.3969526 -21.4764602  37.5410686  27.3859526 -20.4124602  37.1150686
  33.4659526   1.6185398  32.6640686  32.9969526   2.3115398  32.2000686
  34.3319526   1.6005398  32.2570686  15.7859526 -16.5934602  36.7360686
  15.6559526 -16.6944602  37.6790686  15.0569526 -16.0424602  36.4500686
  12.1449526 -20.5294602  38.1340686  12.3269526 -19.7204602  37.6570686
  12.0139526 -21.1864602  37.4500686  19.7059526   0.5195398  35.0440686
  19.8029526   0.2405398  35.9550686  20.2299526  -0.1064602  34.5440686
  14.0849526  -5.5344602  31.2510686  13.5109526  -5.7924602  31.9730686
  14.0839526  -4.5774602  31.2750686  20.6279526  -4.5324602  32.8630686
  21.1909526  -5.1424602  33.3400686  20.5189526  -4.9314602  32.0000686
  20.5729526  -2.0494602  34.0410686  20.6919526  -2.8584602  33.5430686
  21.2859526  -2.0524602  34.6790686  30.4309526   3.8385398  36.7860686
  30.9639526   4.2555398  36.1080686  29.7339526   4.4695398  36.9640686
  28.1899526   5.6675398  36.7950686  27.8419526   5.8095398  35.9150686
  28.4399526   6.5405398  37.0980686  15.5499526 -18.9754602  35.4460686
  15.1819526 -19.7174602  35.9250686  15.5589526 -18.2604602  36.0820686
  31.6109526  -4.5284602  32.9060686  32.2109526  -5.2224602  33.1790686
  30.7829526  -4.7424602  33.3350686  18.7879526  -1.4504602  40.2900686
  17.8999526  -1.6304602  39.9810686  19.0989526  -2.2884602  40.6300686
  14.8909526  -3.9224602  37.4830686  15.0409526  -3.4364602  38.2940686
  15.7609526  -4.2164602  37.2140686  21.7839526   6.0715398  39.9710686
  20.8859526   5.8315398  40.1980686  21.6929526   6.6635398  39.2240686
  15.1019526   4.0835398  39.6260686  14.4369526   4.4685398  40.1970686
  14.6589526   3.9665398  38.7860686  33.8609526 -17.8644602  33.2440686
  33.8629526 -18.6924602  33.7240686  34.4449526 -17.2954602  33.7440686
  12.5759526  -4.5014602  35.9760686  12.4669526  -5.4084602  36.2640686
  13.4339526  -4.2444602  36.3140686  17.0089526 -17.9754602  32.3410686
  16.2049526 -18.0684602  32.8520686  17.5989526 -18.6394602  32.6970686
  18.4279526   7.4225398  38.4150686  17.4779526   7.4165398  38.2970686
  18.7809526   7.2675398  37.5390686  15.5739526  -8.8724602  23.2920686
  15.8479526  -8.3184602  22.5620686  16.3389526  -9.4164602  23.4810686
  17.9349526 -19.3384602  38.6460686  17.0549526 -19.5374602  38.3260686
  17.8109526 -19.1194602  39.5690686  19.2509526  -0.4354602  37.6890686
  18.4439526   0.0595398  37.5450686  19.5289526  -0.1894602  38.5710686
  22.9689526 -19.4254602  32.2160686  22.6049526 -19.5734602  33.0890686
  23.8729526 -19.7334602  32.2780686  26.4309526  -2.1304602  30.8540686
  26.1189526  -2.4174602  29.9960686  25.6339526  -1.9414602  31.3490686
  21.6249526 -18.1724602  39.2540686  21.2619526 -19.0414602  39.0780686
  22.1439526 -17.9684602  38.4760686  24.1919526  -5.8044602  36.4240686
  24.8649526  -5.1244602  36.3820686  23.3839526  -5.3304602  36.6190686
  20.1549526 -19.9754602  30.5170686  21.0549526 -19.9254602  30.8400686
  20.0299526 -20.8984602  30.2970686  15.3429526 -20.2624602  38.6600686
  14.6859526 -20.1214602  39.3420686  15.2789526 -21.1964602  38.4560686
  25.5769526 -13.5014602  12.1240686  26.2899526 -13.1474602  12.6550686
  25.1409526 -12.7294602  11.7620686  22.2219526  -4.2684602  36.9130686
  22.3309526  -3.8374602  37.7610686  21.6349526  -5.0024602  37.0910686
  32.1839526 -18.5164602  35.9210686  31.8499526 -18.8354602  35.0830686
  32.7269526 -19.2324602  36.2510686  16.1759526 -20.3534602  11.6920686
  15.4919526 -21.0234602  11.6680686  15.7629526 -19.5754602  11.3190686
  19.9229526  -4.6684602  24.3820686  19.5549526  -5.5484602  24.4540686
  19.2839526  -4.1834602  23.8590686  15.5129526   7.0575398  38.3140686
  15.1869526   6.4735398  37.6290686  15.1109526   6.7305398  39.1190686
  20.2119526  -6.2944602  36.8760686  20.0899526  -7.2434602  36.8530686
  20.2929526  -6.0414602  35.9560686  12.5919526 -21.3534602  31.4140686
  12.2419526 -20.7264602  32.0470686  12.4539526 -22.2084602  31.8230686
  21.7609526 -13.7334602  15.8720686  22.4529526 -13.8544602  15.2220686
  21.4899526 -14.6224602  16.1010686  19.3329526 -15.1834602  18.3940686
  20.1539526 -15.6104602  18.1510686  18.6669526 -15.6274602  17.8690686
  17.8639526 -15.3184602  40.4830686  18.2109526 -14.6404602  41.0620686
  17.2439526 -14.8574602  39.9170686  32.0509526  -6.4124602  16.9320686
  31.1619526  -6.1854602  16.6580686  32.5819526  -5.6594602  16.6740686
  26.4669526 -13.9834602  23.3090686  26.6539526 -13.5504602  22.4760686
  26.0699526 -13.3014602  23.8510686  37.0289526  -8.5964602  30.6740686
  36.3309526  -7.9804602  30.4500686  36.6389526  -9.4594602  30.5350686
  30.5269526 -13.4294602  25.1170686  30.1529526 -13.0614602  24.3160686
  30.1609526 -14.3124602  25.1690686  34.5689526 -17.5354602  21.1700686
  34.4269526 -17.2354602  20.2730686  34.8039526 -18.4594602  21.0810686
  30.9319526 -13.6184602  21.6500686  30.3549526 -13.0444602  21.1470686
  31.5929526 -13.9054602  21.0200686  31.2299526 -20.1794602  21.4590686
  30.3139526 -20.0604602  21.7090686  31.1999526 -20.7874602  20.7210686
  29.9149526   0.3165398  40.4190686  30.1999526  -0.3684602  41.0250686
  30.4879526   0.2165398  39.6590686   7.1509526 -14.8014602  28.1000686
   7.8689526 -14.1974602  28.2890686   6.8079526 -14.5084602  27.2560686
  26.4779526  -9.5054602  12.2250686  25.5349526  -9.4104602  12.0900686
  26.6509526 -10.4324602  12.0580686  25.7129526 -16.6394602  23.0250686
  26.2829526 -17.0464602  22.3720686  26.0869526 -15.7684602  23.1610686
  35.3109526   1.7935398  25.3850686  34.6539526   1.9235398  24.7020686
  36.1259526   1.6355398  24.9070686  34.8509526 -18.7444602  14.4660686
  35.3059526 -19.5114602  14.1180686  34.1309526 -18.5944602  13.8540686
  22.9599526 -14.5124602  11.1770686  22.2929526 -14.6774602  11.8440686
  23.5469526 -13.8724602  11.5780686  26.6239526  -4.2894602  37.1630686
  27.3819526  -4.6564602  36.7080686  26.6279526  -4.7174602  38.0190686
  33.0299526 -16.0934602  25.2850686  33.2489526 -15.6904602  24.4450686
  32.8529526 -17.0094602  25.0730686  32.5409526 -14.5594602  16.0160686
  31.9759526 -15.3224602  15.8950686  32.8539526 -14.3504602  15.1350686
  21.8879526 -10.2704602  31.0120686  21.2109526  -9.7974602  30.5280686
  22.4679526  -9.5844602  31.3450686  23.7979526 -14.5234602  14.4030686
  24.2869526 -14.0144602  13.7560686  23.8749526 -15.4294602  14.1030686
  12.7059526 -17.6134602  28.4790686  13.2199526 -18.1144602  29.1110686
  12.1999526 -18.2734602  28.0040686  32.3869526 -15.9124602  30.2560686
  33.2619526 -16.2474602  30.0600686  32.0119526 -15.7054602  29.4000686
  17.5979526 -14.3944602  31.4310686  18.4379526 -14.7364602  31.1230686
  17.7189526 -14.2744602  32.3730686  12.5209526 -12.6044602  23.8630686
  11.6349526 -12.6854602  24.2150686  12.4969526 -11.8064602  23.3340686
  36.6229526 -20.8294602  13.8930686  37.2859526 -20.7664602  13.2060686
  36.2329526 -21.6954602  13.7710686  26.2109526 -10.2084602  24.3530686
  25.8209526 -10.1304602  23.4820686  25.8529526  -9.4694602  24.8440686
  30.5409526  -4.9154602  28.4370686  30.0999526  -4.2834602  27.8690686
  29.9329526  -5.0494602  29.1640686   7.6489526 -18.0924602  12.6230686
   7.9939526 -17.5874602  11.8870686   6.7099526 -18.1594602  12.4490686
  32.5429526   1.4715398  16.8640686  33.2539526   1.0625398  17.3580686
  32.9159526   1.6355398  15.9980686  26.9189526  -9.3674602  15.3570686
  27.3779526  -9.2074602  16.1810686  26.6449526  -8.4994602  15.0620686
  25.1069526 -14.5224602  37.7360686  24.4159526 -14.9684602  38.2250686
  25.1899526 -15.0244602  36.9250686  32.6509526 -10.3974602  25.9920686
  32.2089526 -10.9324602  26.6510686  31.9489526  -9.8874602  25.5870686
  33.8329526 -17.9154602  28.3790686  33.5559526 -17.4464602  27.5920686
  33.1369526 -18.5524602  28.5370686  26.9859526 -13.7464602  39.7510686
  26.5459526 -14.0114602  38.9430686  26.3639526 -13.9604602  40.4450686
  36.3079526   2.2365398  16.3550686  36.4559526   2.7895398  15.5880686
  36.5209526   1.3515398  16.0580686  28.3569526 -20.7734602  19.1000686
  28.4899526 -20.4294602  19.9830686  27.6819526 -21.4444602  19.2040686
  31.2739526 -17.0994602  39.7920686  31.0099526 -16.5074602  39.0880686
  30.5249526 -17.1114602  40.3890686  34.1109526 -20.9144602  33.8730686
  33.2019526 -21.1564602  33.6940686  34.5489526 -21.7454602  34.0570686
  34.1449526  -1.1784602  24.0500686  33.2959526  -1.4634602  23.7130686
  34.5229526  -1.9644602  24.4440686  30.4529526 -16.4844602  22.3320686
  30.8549526 -15.6484602  22.0940686  31.1939526 -17.0644602  22.5100686
  32.0659526 -20.5004602  30.6300686  31.7629526 -20.1324602  29.8000686
  31.5659526 -20.0314602  31.2980686  29.6219526   2.3835398  26.7860686
  30.4099526   2.2965398  27.3220686  29.9489526   2.5375398  25.9000686
  33.4119526 -14.0364602  34.4590686  33.3919526 -14.7764602  35.0650686
  34.1949526 -13.5444602  34.7070686  32.8269526  -2.3834602  18.6970686
  31.9399526  -2.4014602  19.0560686  33.2769526  -3.1054602  19.1340686
  23.7439526 -11.9604602  17.6170686  23.3759526 -12.4274602  16.8660686
  24.6479526 -12.2684602  17.6720686  30.3319526   1.6365398  21.0090686
  30.0609526   2.1955398  20.2800686  29.6409526   0.9775398  21.0740686
   7.1209526 -15.1944602  17.8060686   6.5429526 -15.6354602  17.1820686
   7.7989526 -14.7924602  17.2620686  12.5009526 -19.8904602  24.6180686
  13.4429526 -19.9834602  24.4710686  12.2099526 -19.2844602  23.9370686
  28.0689526 -10.1784602  38.6210686  28.5749526 -10.7904602  39.1550686
  28.5619526 -10.1094602  37.8030686  19.1309526 -17.7404602  10.8260686
  18.5389526 -17.0174602  10.6190686  19.8059526 -17.6994602  10.1480686
  31.5499526 -19.4424602  28.0830686  31.7879526 -19.3454602  27.1610686
  31.0099526 -20.2324602  28.1100686  15.6399526 -17.1304602  29.9450686
  16.2469526 -17.4334602  30.6210686  14.9049526 -17.7424602  29.9920686
  34.7639526 -14.2994602  39.0100686  35.2829526 -13.5254602  38.7900686
  34.6039526 -14.7294602  38.1700686  28.3239526 -19.7994602  21.5670686
  28.1469526 -19.7814602  22.5070686  28.1879526 -18.8964602  21.2800686
  29.2069526 -15.3054602  26.9780686  28.6659526 -14.7114602  27.4980686
  28.7709526 -15.3454602  26.1270686  24.1359526 -11.7524602  40.6120686
  24.0229526 -10.8154602  40.7670686  24.4499526 -11.8104602  39.7090686
  35.0849526 -19.9854602  19.8130686  34.7589526 -20.7554602  20.2780686
  34.6759526 -20.0354602  18.9490686  28.6619526  -5.4414602  29.9780686
  28.3489526  -4.9744602  30.7520686  29.1179526  -6.2074602  30.3270686
   9.7859526 -17.4394602  32.3880686   9.3959526 -17.9424602  31.6730686
  10.0899526 -16.6314602  31.9730686  36.9569526   0.9555398  34.2360686
  37.6099526   0.4815398  33.7220686  36.2129526   1.0595398  33.6420686
  37.1219526 -12.1734602  17.8640686  36.1859526 -12.2754602  18.0360686
  37.2619526 -12.6184602  17.0290686  19.2299526 -14.0734602  22.7390686
  20.1699526 -14.0984602  22.5600686  19.0569526 -14.8794602  23.2250686
  29.3469526  -9.1674602  22.0000686  28.8419526  -8.3754602  21.8160686
  29.2979526  -9.6764602  21.1910686  35.0839526 -12.5944602  29.2300686
  35.9749526 -12.7424602  29.5490686  34.5319526 -13.1214602  29.8080686
  33.0249526  -0.4304602  39.4530686  32.5199526  -0.5114602  38.6450686
  33.5269526   0.3775398  39.3430686   9.7269526 -12.6024602  19.1510686
  10.1499526 -12.4004602  19.9860686   8.8609526 -12.2014602  19.2180686
   9.0569526 -13.2774602  28.9440686   9.9079526 -12.8734602  29.1120686
   8.4989526 -12.9674602  29.6570686  34.5939526 -15.5714602  23.1930686
  34.7249526 -16.3964602  22.7250686  34.5229526 -14.9124602  22.5020686
  13.1559526 -18.0244602  13.8520686  12.8029526 -17.1604602  14.0660686
  12.4659526 -18.4434602  13.3370686  27.2529526 -18.2804602  17.6910686
  27.8789526 -18.8464602  18.1440686  26.5189526 -18.1994602  18.2990686
  12.9769526 -11.2484602  15.8810686  12.7259526 -10.6924602  16.6190686
  12.9629526 -10.6634602  15.1240686  33.0949526   6.9215398  31.0940686
  32.4779526   6.3395398  30.6490686  32.7689526   7.8025398  30.9090686
  29.2549526 -13.7614602  19.1520686  30.1689526 -14.0454602  19.1200686
  29.2179526 -13.0054602  18.5660686  31.4769526 -10.6314602  17.7550686
  31.7849526 -10.1844602  18.5430686  32.1889526 -10.5234602  17.1240686
  34.2009526 -13.6064602  21.2760686  33.7599526 -12.8694602  21.6990686
  34.3759526 -13.3014602  20.3850686  31.5209526 -13.2964602  10.6830686
  32.0899526 -12.6964602  10.2010686  32.0399526 -13.5604602  11.4430686
  34.7549526  -3.6954602  30.9510686  34.0999526  -3.6084602  31.6440686
  34.8829526  -2.8034602  30.6280686  27.5359526 -15.8044602  16.4680686
  27.7799526 -16.5904602  16.9560686  28.3709526 -15.4294602  16.1850686
  11.1889526  -4.2954602  31.4210686  10.6479526  -3.8994602  30.7380686
  11.8749526  -3.6484602  31.5890686  22.1609526 -18.4194602  22.4900686
  23.0209526 -18.8274602  22.3870686  21.6669526 -19.0334602  23.0340686
   8.3449526 -14.7184602  24.6800686   7.4569526 -14.7914602  25.0270686
   8.6379526 -13.8484602  24.9500686  17.9409526  -3.4864602  31.0810686
  18.6069526  -3.6524602  30.4140686  17.7829526  -4.3414602  31.4810686
  32.4189526  -8.0264602  22.0980686  32.1229526  -7.2984602  22.6440686
  33.2089526  -8.3464602  22.5340686  26.5079526  -6.3614602  26.6100686
  27.3229526  -6.8564602  26.5230686  26.7899526  -5.4754602  26.8380686
  34.8559526  -7.9304602  14.3640686  34.8289526  -7.6874602  15.2890686
  34.9909526  -7.1024602  13.9020686  29.9369526  -7.1454602  39.8030686
  30.1629526  -6.2354602  39.9980686  29.4299526  -7.0974602  38.9930686
  31.5949526 -17.7434602  18.8540686  31.7559526 -18.4034602  18.1800686
  32.4589526 -17.5664602  19.2280686  34.9819526  -5.5694602  12.3310686
  34.1529526  -6.0344602  12.2120686  35.3599526  -5.5254602  11.4530686
  28.5109526 -15.5704602  24.2430686  27.8349526 -15.0754602  23.7800686
  29.1289526 -15.8294602  23.5590686  25.0389526  -4.3544602  21.8130686
  24.9959526  -5.2904602  21.6160686  25.9079526  -4.2314602  22.1970686
  32.5709526  -9.5654602  19.9230686  32.2099526  -9.0174602  20.6200686
  33.3699526  -9.9354602  20.2980686  34.3279526 -16.5594602  18.5780686
  34.4809526 -15.6384602  18.7910686  34.6509526 -16.6544602  17.6820686
  31.2289526 -12.5584602  34.8930686  30.5529526 -13.0994602  34.4860686
  32.0109526 -13.1104602  34.8930686  29.9389526  -7.9574602  30.4770686
  30.6509526  -8.2584602  29.9120686  29.1969526  -8.5164602  30.2460686
  30.3489526 -21.0604602  24.7420686  30.7939526 -21.7674602  24.2750686
  31.0389526 -20.4244602  24.9290686  23.3519526 -15.8664602  22.3220686
  24.2459526 -16.1764602  22.4620686  22.8169526 -16.6594602  22.3430686
  32.3509526 -19.0074602  25.6670686  33.2499526 -19.3314602  25.7310686
  32.2029526 -18.8944602  24.7280686  33.1269526 -11.7594602  22.9380686
  33.4429526 -12.4274602  23.5470686  32.1899526 -11.6914602  23.1220686
  30.1109526 -13.0954602  14.0220686  30.3049526 -12.1594602  13.9670686
  30.5279526 -13.3794602  14.8360686  25.4869526 -19.7624602  15.0240686
  25.2619526 -20.4974602  15.5940686  26.4429526 -19.7224602  15.0510686
  35.0789526 -12.3164602  35.9360686  35.6699526 -12.2654602  36.6870686
  34.5659526 -11.5094602  35.9790686  36.4979526  -1.0644602  23.0000686
  35.6059526  -1.0564602  23.3470686  36.3859526  -1.0784602  22.0500686
  26.9999526 -13.1624602  20.5830686  26.9999526 -12.2784602  20.2160686
  27.7039526 -13.6144602  20.1200686  29.7819526 -10.1594602  36.6690686
  29.8539526 -10.9734602  36.1700686  30.6739526  -9.9814602  36.9680686
  29.4329526  -3.7064602  24.2450686  29.5689526  -2.9724602  24.8430686
  28.5859526  -3.5294602  23.8350686  25.6439526  -2.6034602  35.1990686
  25.8839526  -3.2294602  35.8830686  26.4429526  -2.1014602  35.0420686
  25.6349526 -15.2944602  19.4630686  25.7769526 -15.2244602  18.5190686
  25.9489526 -14.4624602  19.8160686  24.6729526 -19.4124602  22.2160686
  24.6259526 -19.6044602  23.1530686  24.5319526 -20.2574602  21.7910686
  30.1779526 -15.4844602  12.8030686  30.2079526 -14.5664602  13.0720686
  29.6669526 -15.4814602  11.9940686  26.5199526   7.4885398  11.3860686
  27.4769526   7.4805398  11.3800686  26.2799526   6.9685398  12.1530686
  30.1829526 -16.9484602  37.1340686  30.8829526 -17.3764602  36.6420686
  29.5459526 -16.6884602  36.4690686  36.4929526  -0.2264602  27.3200686
  36.2089526   0.5855398  26.9000686  37.3819526  -0.0414602  27.6220686
  37.0899526 -18.2174602  19.2520686  36.3779526 -18.8424602  19.3890686
  36.7139526 -17.3694602  19.4860686  15.0129526 -20.6004602  17.5780686
  15.4759526 -20.1254602  18.2680686  14.7019526 -19.9174602  16.9840686
  33.1529526 -15.3274602  13.3900686  33.8659526 -15.0534602  12.8130686
  32.5659526 -15.8284602  12.8240686  32.5019526  -0.7144602  12.0490686
  32.5899526  -0.5294602  11.1140686  33.3139526  -1.1644602  12.2820686
  35.4559526 -16.0624602  29.8180686  35.8939526 -15.5364602  29.1490686
  35.1499526 -16.8394602  29.3500686  20.7959526 -20.7214602  39.3110686
  19.8989526 -20.8544602  39.6160686  21.3349526 -20.8374602  40.0940686
  28.0319526 -17.1454602  28.2720686  27.6719526 -17.6234602  27.5250686
  28.6139526 -16.4934602  27.8810686  26.6419526  -8.0744602  39.8370686
  26.7109526  -8.5964602  40.6370686  27.0289526  -8.6254602  39.1570686
  36.4949526 -11.7524602  11.7330686  36.8729526 -11.9124602  10.8690686
  35.9779526 -12.5374602  11.9180686  30.9039526  -4.7404602  40.2310686
  30.8669526  -4.1474602  40.9810686  31.7449526  -4.5504602  39.8150686
  28.5099526  -8.3224602  34.7710686  28.7109526  -9.1884602  35.1270686
  28.3689526  -8.4734602  33.8370686  31.4739526  -5.0784602  37.0370686
  31.5889526  -4.1924602  36.6950686  31.1279526  -4.9514602  37.9210686
  36.2659526 -11.1514602  33.0020686  35.3739526 -10.9414602  32.7250686
  36.1839526 -11.3674602  33.9310686  34.6059526  -9.8804602  29.3440686
  34.6749526 -10.8334602  29.2840686  34.6949526  -9.6914602  30.2780686
  35.2089526  -8.4534602  34.5010686  35.8519526  -8.8534602  35.0880686
  34.5429526  -8.0924602  35.0860686   8.0659526  -7.6064602  37.3130686
   8.3679526  -7.5194602  38.2170686   8.8339526  -7.9144602  36.8320686
  31.2029526 -19.7944602  38.6320686  31.8709526 -20.0994602  38.0180686
  31.4959526 -18.9204602  38.8900686  28.8539526  -8.1684602  12.9010686
  28.8639526  -7.8224602  12.0090686  28.0459526  -8.6794602  12.9510686
   7.7729526 -17.0484602  37.0970686   7.9119526 -17.1944602  36.1620686
   7.9669526 -16.1204602  37.2270686  35.1209526   4.2405398  10.7180686
  34.7419526   4.8545398  10.0880686  35.8809526   4.7015398  11.0730686
  10.0069526 -11.2734602  33.4370686   9.4159526 -10.7054602  32.9420686
  10.5899526 -10.6694602  33.8970686  28.2839526 -16.5294602  34.9250686
  27.4399526 -16.2654602  35.2900686  28.3459526 -17.4654602  35.1150686
  33.6339526 -15.9504602  36.4560686  32.9109526 -16.5634602  36.3230686
  34.4129526 -16.4354602  36.1830686  35.8499526   6.6545398  13.5650686
  35.9659526   5.7555398  13.8730686  36.5679526   6.7925398  12.9480686
   9.7389526 -14.4574602  33.8470686  10.0059526 -13.6454602  33.4150686
   9.1939526 -14.9054602  33.1990686  29.5229526   2.9415398  11.3360686
  28.7469526   2.8695398  11.8920686  29.5959526   2.0855398  10.9140686
  34.0989526 -13.7754602  31.4270686  34.2539526 -13.9624602  32.3530686
  33.2649526 -14.2044602  31.2330686  12.2729526  -6.2844602  39.2480686
  12.3399526  -6.8834602  38.5050686  13.1809526  -6.1124602  39.4990686
  34.0299526 -10.9584602  16.0650686  34.3869526 -10.0934602  16.2630686
  34.6329526 -11.3244602  15.4170686  29.2769526 -14.1804602  33.7510686
  29.7229526 -14.2994602  32.9130686  29.0749526 -15.0694602  34.0440686
  33.1729526  -6.5534602  33.4290686  33.9199526  -6.9604602  32.9900686
  33.2579526  -6.8204602  34.3440686   8.8039526 -16.7814602  14.7440686
   8.4829526 -17.1984602  13.9440686   8.1759526 -17.0404602  15.4180686
  31.3459526   2.0135398  28.8850686  31.3659526   1.2275398  29.4320686
  32.2389526   2.0945398  28.5490686  34.4989526   6.5145398  38.8750686
  33.9559526   7.0455398  39.4590686  35.1589526   7.1235398  38.5430686
  31.2659526  -3.0204602  12.2830686  31.6239526  -2.1554602  12.0820686
  31.9179526  -3.4224602  12.8580686  32.3349526  -6.3934602  29.7560686
  31.7709526  -6.1894602  30.5030686  32.1179526  -5.7284602  29.1030686
  34.9789526 -18.5904602  11.3060686  34.2289526 -19.1634602  11.4670686
  34.6609526 -17.7134602  11.5170686  24.6789526 -15.5844602  32.3820686
  25.0169526 -16.4784602  32.4320686  25.3299526 -15.1094602  31.8650686
  25.7229526 -17.7364602  38.2160686  26.5359526 -18.2344602  38.1310686
  25.6759526 -17.5094602  39.1450686  36.3079526  -9.8194602  36.7980686
  36.4759526 -10.3754602  37.5590686  36.6659526  -8.9654602  37.0410686
  27.1579526 -14.9274602  31.1940686  27.5009526 -15.7894602  30.9590686
  27.9369526 -14.3924602  31.3460686  36.5039526 -18.3634602  26.5890686
  36.3269526 -19.1444602  27.1140686  35.9969526 -17.6704602  27.0130686
  33.2319526  -9.1314602  38.1440686  32.5229526  -9.2964602  38.7650686
  33.9929526  -8.9414602  38.6920686  24.9699526 -13.9044602  34.6390686
  24.8479526 -14.8534602  34.6090686  24.1059526 -13.5584602  34.8650686
  28.6539526  -5.8464602  35.9370686  29.3319526  -6.0264602  36.5880686
  28.4769526  -6.6964602  35.5330686  36.9399526 -18.9354602  39.2250686
  36.4019526 -18.6054602  39.9440686  36.8099526 -18.3034602  38.5180686
  31.0909526 -16.8224602  15.5880686  30.9749526 -17.0064602  14.6560686
  31.3379526 -17.6644602  15.9700686  35.7879526 -16.5484602  34.4900686
  36.3189526 -15.8644602  34.8990686  36.3609526 -17.3144602  34.4650686
   9.6069526 -17.7384602  39.5110686   9.4299526 -16.7994602  39.5540686
   9.0949526 -18.0464602  38.7630686  16.9799526  -9.7234602  27.6960686
  17.2909526 -10.3054602  28.3890686  17.2129526 -10.1734602  26.8830686
   9.3439526  -5.5674602  35.2290686   8.5829526  -6.0604602  34.9240686
  10.0969526  -6.0774602  34.9300686  27.2259526  -5.3094602  39.4950686
  27.0119526  -6.2244602  39.3160686  27.6669526  -5.3274602  40.3450686
  27.0929526 -12.3254602  33.9260686  27.8909526 -12.8534602  33.9730686
  26.3939526 -12.9244602  34.1900686  30.6959526  -8.8084602  24.7100686
  30.3969526  -8.9014602  23.8060686  30.9559526  -7.8904602  24.7840686
  29.0169526  -3.0704602  37.9410686  28.7759526  -2.3114602  38.4720686
  28.2959526  -3.6884602  38.0630686  27.7499526  -0.8754602  39.0700686
  27.8969526  -0.5964602  39.9730686  27.6549526  -0.0594602  38.5780686
  30.1869526 -14.4354602  31.2490686  30.6619526 -13.7394602  30.7950686
  30.6729526 -15.2334602  31.0390686   7.2109526 -14.3554602  35.5530686
   8.0909526 -14.2214602  35.1990686   6.7679526 -13.5174602  35.4180686
  28.3729526 -17.3164602  20.7540686  29.2609526 -17.0984602  21.0370686
  28.0469526 -16.5124602  20.3480686  12.3679526  -9.9734602  18.0650686
  11.9349526 -10.6064602  18.6390686  12.6649526  -9.2804602  18.6540686
  13.1419526 -15.4904602  23.5070686  13.8519526 -15.6034602  22.8750686
  13.0699526 -14.5434602  23.6210686  32.9679526  -7.3104602  35.8990686
  33.0099526  -7.9324602  36.6260686  32.4439526  -6.5844602  36.2360686
  34.0589526   4.5935398  32.6920686  34.9809526   4.6845398  32.9360686
  33.8959526   5.3225398  32.0940686   7.5989526 -11.7634602  24.4150686
   6.9169526 -11.7484602  25.0870686   7.3149526 -12.4404602  23.8000686
  29.0969526  -7.5824602  26.6350686  29.7379526  -8.1504602  26.2070686
  29.5799526  -7.1784602  27.3560686  28.4409526   2.0545398  37.6720686
  29.1419526   2.6085398  37.3280686  27.9099526   2.6435398  38.2070686
  31.2039526 -17.8134602  31.6400686  31.6779526 -17.0534602  31.3010686
  31.6319526 -18.0104602  32.4730686   6.9639526 -12.3014602  37.9670686
   7.5299526 -12.0324602  37.2430686   7.5429526 -12.7804602  38.5600686
  20.8319526 -15.0764602  26.1560686  21.3349526 -14.6814602  25.4440686
  20.5179526 -14.3314602  26.6690686  35.2779526  -9.0124602  39.8660686
  36.1279526  -8.5734602  39.8620686  35.2949526  -9.5614602  40.6500686
  11.0039526  -7.2134602  30.6130686  10.4139526  -6.4834602  30.7980686
  10.9599526  -7.3224602  29.6630686  26.4429526 -12.4344602  30.4820686
  26.0599526 -11.6314602  30.8350686  26.2019526 -13.1134602  31.1130686
  24.3059526 -19.2874602  24.7800686  24.5469526 -19.8454602  25.5200686
  24.0859526 -18.4444602  25.1770686  12.5509526  -7.2124602  36.6540686
  11.9409526  -7.8474602  36.2770686  13.3579526  -7.7074602  36.7910686
  13.2659526 -17.8834602  34.3780686  14.1219526 -18.0954602  34.7510686
  12.7169526 -17.6844602  35.1360686   7.7409526  -7.4054602  34.0420686
   6.8019526  -7.5814602  34.0980686   8.0709526  -8.0584602  33.4250686
   9.1439526  -9.0244602  32.1890686   9.8679526  -8.4804602  31.8800686
   8.4089526  -8.7904602  31.6230686  34.5639526 -13.2334602  17.8940686
  34.1689526 -12.4734602  17.4660686  34.5429526 -13.9204602  17.2280686
  11.7289526 -13.3234602  10.8780686  11.6399526 -12.3874602  11.0570686
  12.6699526 -13.4894602  10.9330686  10.6689526 -16.2354602  25.2400686
  11.3769526 -15.7824602  24.7810686   9.9369526 -15.6184602  25.2210686
  21.4579526 -12.9344602  31.0080686  21.5169526 -11.9824602  31.0850686
  21.4879526 -13.1014602  30.0660686  26.7299526  -4.4664602  32.1830686
  27.3649526  -4.2714602  32.8720686  26.4969526  -3.6114602  31.8210686
  34.2249526  -9.1474602  31.9490686  33.4439526  -9.6344602  32.2120686
  34.7949526  -9.1734602  32.7170686   8.7999526 -16.9704602  27.8790686
   8.3579526 -17.4164602  27.1560686   8.1709526 -16.3124602  28.1750686
  10.8759526 -18.3904602  16.0580686  11.8299526 -18.3134602  16.0910686
  10.5929526 -17.6454602  15.5280686  29.3999526 -11.1734602  32.2810686
  28.8109526 -10.4234602  32.1910686  28.8529526 -11.8634602  32.6580686
  35.7029526  -0.9764602  30.8980686  36.2929526  -0.6664602  31.5840686
  35.5969526  -0.2254602  30.3140686  25.6059526   4.1715398  11.2340686
  25.7029526   5.0735398  11.5400686  26.2869526   4.0705398  10.5680686
  31.4099526  -6.2114602  23.9500686  30.8279526  -5.4824602  23.7370686
  31.9719526  -5.8734602  24.6480686  26.6439526 -21.4704602  27.7540686
  26.9419526 -21.1804602  26.8920686  25.7699526 -21.0924602  27.8460686
  31.6679526   4.6545398  30.2850686  32.4019526   4.2045398  29.8660686
  30.8919526   4.3135398  29.8390686  26.8679526   2.4685398  24.0770686
  27.3679526   2.6115398  23.2730686  27.4699526   1.9975398  24.6530686
  23.3269526 -18.9364602  17.5530686  23.5879526 -19.8124602  17.2700686
  24.1469526 -18.5094602  17.7990686  24.9449526 -17.8804602  19.3400686
  25.1119526 -16.9504602  19.4960686  24.7849526 -18.2454602  20.2100686
  28.7889526 -21.5174602  29.9230686  29.4009526 -21.7314602  29.2180686
  28.0459526 -21.1084602  29.4790686  34.2389526  -0.1144602  18.6430686
  34.1069526   0.4695398  19.3900686  33.4559526  -0.6644602  18.6260686
  28.2039526 -19.4184602  15.2560686  28.2009526 -18.8694602  16.0410686
  28.6509526 -18.8894602  14.5950686  29.0979526 -11.3894602  26.7370686
  29.0729526 -11.2104602  25.7960686  29.9779526 -11.7344602  26.8920686
  23.6989526  -3.4384602  23.8720686  23.8189526  -4.0284602  23.1280686
  24.5369526  -2.9854602  23.9560686  34.9539526  -4.0974602  19.8780686
  34.8369526  -4.2314602  20.8180686  35.3979526  -3.2514602  19.8100686
  32.5919526   3.8255398  39.3030686  33.4399526   3.3865398  39.2270686
  32.1339526   3.6035398  38.4920686  33.7649526  -3.9654602  24.0760686
  33.3689526  -3.7454602  24.9200686  33.9019526  -4.9124602  24.1160686
  30.1339526   0.0965398  24.0080686  29.6589526   0.0805398  23.1770686
  31.0419526  -0.0894602  23.7690686  32.3189526 -18.2824602  22.9270686
  31.9459526 -18.8894602  22.2880686  33.1749526 -18.0504602  22.5670686
  31.2019526   0.2965398  14.2520686  31.8469526   0.9195398  14.5860686
  31.5269526   0.0555398  13.3850686  32.4129526  -5.0094602  14.2470686
  32.5199526  -5.6654602  13.5580686  31.5789526  -5.2314602  14.6620686
   8.2979526   2.8495398  39.4930686   7.8419526   2.0595398  39.7820686
   9.2089526   2.5755398  39.3850686  32.7629526  -0.6394602  33.7670686
  33.0279526   0.1635398  33.3190686  32.1179526  -1.0384602  33.1840686
  35.1619526  -6.4864602  24.6420686  35.4179526  -7.3754602  24.3980686
  35.7959526  -5.9234602  24.1960686  28.5869526  -3.8524602  19.5080686
  27.7769526  -3.5644602  19.9290686  28.2969526  -4.3594602  18.7500686
  27.0309526   4.4335398  38.8970686  26.1449526   4.7895398  38.8340686
  27.4719526   4.7455398  38.1070686  29.8579526  -2.2174602  27.8960686
  29.3909526  -1.4664602  27.5280686  30.5159526  -1.8304602  28.4740686
  30.7939526  -3.7814602  21.0300686  31.2429526  -4.5954602  20.8030686
  30.0429526  -3.7494602  20.4370686  34.5609526   4.3065398  17.0240686
  34.8479526   3.4035398  17.1540686  34.4859526   4.4005398  16.0740686
  34.2439526   3.6935398  29.3780686  34.3209526   3.0615398  28.6640686
  35.0329526   4.2305398  29.3100686  36.0879526  -6.2794602  27.9010686
  35.7579526  -6.4854602  28.7750686  35.6479526  -6.9044602  27.3250686
  24.1149526   1.1805398  28.1860686  23.9709526   0.4855398  27.5430686
  23.8659526   1.9845398  27.7310686  32.6059526 -19.3884602  12.7910686
  31.7869526 -18.8954602  12.7460686  32.3689526 -20.2104602  13.2200686
  34.9279526  -5.0514602  15.4780686  34.2549526  -5.0844602  14.7980686
  35.3169526  -4.1804602  15.3890686  25.2519526 -10.0814602  28.6480686
  25.2029526  -9.8404602  29.5730686  26.1179526  -9.7844602  28.3690686
  18.8849526 -17.3484602  25.9830686  18.1479526 -17.1424602  26.5590686
  19.5869526 -16.7674602  26.2750686  34.7199526   6.8135398  18.1030686
  34.6569526   5.8615398  18.0220686  34.6449526   6.9785398  19.0430686
  33.8079526   1.7075398  27.6340686  34.1369526   2.0005398  26.7840686
  33.5309526   0.8035398  27.4860686  35.7329526   1.8875398  12.6490686
  36.6369526   2.1925398  12.7170686  35.3199526   2.4945398  12.0350686
  36.8019526   5.5055398  28.6690686  36.6409526   5.9695398  27.8470686
  36.3539526   6.0295398  29.3320686  32.3929526   4.4805398  22.2900686
  32.1419526   4.0675398  21.4640686  31.7669526   5.1965398  22.4000686
  32.2569526   3.6295398  12.3280686  31.3459526   3.3385398  12.3440686
  32.4779526   3.6755398  11.3980686  24.1439526   5.3315398  38.7220686
  23.4829526   5.5795398  39.3680686  23.6419526   4.9645398  37.9940686
  23.1369526 -16.9654602  26.2880686  23.1709526 -17.0194602  27.2430686
  22.5429526 -16.2354602  26.1110686  35.7819526  -2.3284602  14.3790686
  36.6499526  -2.7064602  14.2340686  35.2519526  -2.6614602  13.6550686
  34.4099526  -2.6394602  12.0590686  34.9029526  -2.3544602  11.2890686
  34.4369526  -3.5954602  12.0210686  34.4469526 -20.3494602  16.7840686
  34.7209526 -19.8664602  16.0040686  35.1039526 -21.0384602  16.8830686
  34.6829526   7.3935398  20.9550686  34.5419526   7.8415398  21.7890686
  35.5919526   7.0975398  20.9910686  19.3599526  -5.1044602  39.2930686
  20.0409526  -4.4324602  39.3230686  19.5439526  -5.5974602  38.4930686
  36.5949526 -11.9204602  14.4560686  36.3269526 -12.0884602  13.5530686
  37.4289526 -12.3804602  14.5490686  33.3509526  -0.9534602  27.0500686
  33.0499526  -1.7934602  26.7040686  34.2419526  -1.1254602  27.3550686
   7.2189526 -21.2504602  16.6610686   7.2239526 -21.3224602  15.7060686
   7.7639526 -21.9784602  16.9590686  30.7279526   7.6545398  37.8910686
  30.9529526   7.1265398  38.6570686  30.8049526   8.5595398  38.1930686
  24.8929526 -20.0314602  12.5320686  24.9079526 -20.2214602  13.4700686
  25.0859526 -20.8714602  12.1140686  31.9239526  -3.3944602  26.0470686
  32.2079526  -4.2544602  26.3550686  31.3529526  -3.0674602  26.7420686
  33.0299526   1.5475398  20.6910686  32.1309526   1.3695398  20.9660686
  32.9679526   2.3495398  20.1720686  14.9359526 -16.8754602  39.3480686
  15.3109526 -16.7904602  40.2240686  14.4529526 -17.7014602  39.3720686
  28.1819526 -18.6824602  38.2350686  28.7189526 -19.2634602  38.7740686
  28.7959526 -18.0264602  37.9040686  31.7789526   4.9665398  34.5060686
  32.5509526   4.8785398  33.9470686  31.1109526   4.4285398  34.0800686
  26.8789526   5.7835398  33.8100686  27.6289526   5.6135398  33.2400686
  26.6929526   6.7155398  33.6890686  29.0889526   6.0175398  11.5350686
  30.0139526   6.0825398  11.2980686  28.8179526   5.1595398  11.2080686
  35.7929526   1.7065398  30.8260686  36.6469526   2.1075398  30.6670686
  35.1719526   2.2765398  30.3710686  36.0159526  -2.1744602  39.6300686
  35.5839526  -2.4994602  38.8400686  36.8349526  -2.6664602  39.6760686
  29.5429526   1.3025398  34.9040686  30.3799526   1.7675398  34.9240686
  29.0109526   1.7925398  34.2770686  36.4229526  -1.4224602  20.1280686
  37.2289526  -1.0214602  19.8020686  35.8029526  -1.3344602  19.4040686
  36.8289526 -20.2794602  33.2440686  37.0619526 -20.9314602  32.5830686
  35.8869526 -20.3944602  33.3730686  21.7039526   2.7805398  39.3850686
  20.8459526   3.2035398  39.4060686  22.1789526   3.2345398  38.6890686
  33.4909526 -11.4004602  40.1870686  33.4709526 -10.8494602  40.9690686
  33.3429526 -10.7924602  39.4620686  36.1899526   4.9025398  36.5030686
  35.6139526   4.9565398  37.2650686  35.6819526   4.4175398  35.8520686
  34.5189526   3.0995398  35.0810686  33.7039526   3.0115398  34.5880686
  34.4579526   2.4335398  35.7660686  33.5419526  -3.2864602  34.4970686
  33.6879526  -2.4554602  34.0460686  32.6069526  -3.4604602  34.3860686
  33.7179526 -16.3604602  40.6730686  32.8939526 -16.7574602  40.3910686
  33.7129526 -15.4904602  40.2740686  30.9669526   0.2365398  37.6970686
  31.6529526   0.7175398  37.2350686  30.1829526   0.7755398  37.5890686
  35.1569526  -6.5204602  30.7080686  35.1639526  -5.5854602  30.5000686
  34.2789526  -6.6834602  31.0510686  33.1539526  -3.9914602  39.3880686
  33.8439526  -4.6214602  39.1830686  33.5149526  -3.1454602  39.1230686
  36.9959526   6.5035398  32.3830686  36.4659526   6.8525398  33.1000686
  37.1319526   5.5835398  32.6100686  34.6459526   1.7715398  38.9720686
  35.2849526   2.2715398  39.4790686  35.1489526   1.4075398  38.2440686
  34.8999526  -3.6114602  37.1550686  34.4499526  -3.2254602  36.4040686
  34.9609526  -4.5434602  36.9450686  27.9129526  -1.0904602  35.0630686
  28.5319526  -0.3634602  35.1280686  27.8999526  -1.3114602  34.1310686
  33.2069526 -20.8524602  37.0560686  32.9769526 -21.4414602  36.3380686
  33.9999526 -21.2324602  37.4340686  31.1879526  -9.2734602  39.9020686
  30.7949526  -8.4004602  39.8940686  30.4509526  -9.8664602  40.0520686
  10.8859526 -18.8894602  12.0530686  10.2489526 -18.4314602  11.5040686
  10.3589526 -19.4754602  12.5950686  36.1679526   0.4805398  37.0110686
  36.8829526  -0.0234602  37.4000686  36.5589526   0.8985398  36.2440686
  33.5479526   0.5735398  36.3420686  34.3899526   0.1565398  36.5250686
  33.2259526   0.1285398  35.5570686  31.3599526   7.6855398  35.1800686
  31.3769526   7.4195398  36.0990686  31.5599526   6.8855398  34.6950686
  26.4869526   1.2985398  35.7550686  26.5979526   0.5765398  35.1360686
  27.2019526   1.1905398  36.3810686  27.8279526 -17.6274602  30.7640686
  27.9529526 -17.5774602  29.8170686  28.6989526 -17.4764602  31.1300686
  36.1099526   7.2835398  34.8500686  36.9519526   7.6345398  35.1420686
  35.9359526   6.5525398  35.4430686  23.9259526 -20.3194602  37.6070686
  24.5659526 -20.9344602  37.9670686  24.2129526 -19.4624602  37.9220686
  24.1299526   6.8825398  35.3350686  24.6709526   6.9765398  36.1190686
  24.2649526   5.9765398  35.0580686  30.7099526   3.4235398  32.5930686
  29.9419526   3.0695398  32.1440686  31.2399526   3.8085398  31.8950686
  28.3429526   1.9875398  31.3050686  27.6079526   1.5525398  30.8740686
  27.9459526   2.4635398  32.0340686  31.5119526 -12.1134602  30.6330686
  32.3429526 -11.8984602  31.0570686  30.8439526 -11.7724602  31.2280686
  31.0479526 -19.8624602  33.8790686  30.1739526 -19.5834602  34.1540686
  31.0909526 -20.7884602  34.1180686  35.8959526  -5.4034602  39.5560686
  36.5049526  -4.6744602  39.4410686  36.4569526  -6.1744602  39.6390686
  30.6829526  -1.0834602  16.6200686  31.5449526  -1.4824602  16.7390686
  30.7139526  -0.6994602  15.7440686  28.1089526   0.4265398  27.8630686
  27.7309526   0.5315398  28.7370686  28.5469526   1.2595398  27.6890686
  36.4479526 -15.0634602  32.2590686  36.0589526 -15.3584602  31.4360686
  36.1159526 -15.6764602  32.9150686  31.6559526   6.3835398  40.1050686
  32.0179526   5.5385398  39.8390686  32.2719526   6.7135398  40.7590686
  29.4059526 -20.9264602  10.5370686  29.9389526 -21.2034602  11.2820686
  30.0419526 -20.7124602   9.8540686   9.1539526 -19.0874602  30.1570686
   9.1259526 -18.4284602  29.4630686   8.4819526 -19.7234602  29.9120686
  27.4759526   2.6785398  33.7210686  27.1729526   3.5775398  33.8470686
  26.9289526   2.1565398  34.3080686   7.9589526 -15.3124602  11.4220686
   8.2879526 -14.8584602  10.6460686   8.7029526 -15.3314602  12.0230686
  26.4919526  -4.5254602  43.9790686  26.3969526  -5.4034602  44.3490686
  25.7269526  -4.4204602  43.4140686  14.0539526   5.7445398  44.6500686
  13.3489526   5.1875398  44.9800686  14.0789526   6.4835398  45.2580686
  12.9689526 -14.5604602  49.2180686  12.5039526 -15.3574602  48.9650686
  12.9929526 -14.0334602  48.4190686   7.7259526  -7.4564602  49.0530686
   6.9029526  -7.1364602  48.6810686   7.9989526  -8.1574602  48.4620686
  18.3159526 -10.1814602  46.2210686  17.7319526  -9.7314602  46.8310686
  18.7689526 -10.8324602  46.7570686  29.1699526 -12.0254602  46.8530686
  29.0809526 -11.7914602  45.9290686  29.8289526 -11.4184602  47.1910686
  35.1269526 -15.9664602  46.0660686  34.1869526 -15.8464602  45.9300686
  35.3059526 -16.8504602  45.7470686  25.4529526  -0.1704602  41.1980686
  24.7989526   0.5195398  41.0840686  25.3689526  -0.7124602  40.4140686
  17.7749526  -5.5454602  47.1820686  18.2239526  -4.7044602  47.2660686
  16.9669526  -5.4364602  47.6840686   9.4789526  -0.7594602  44.3630686
  10.2719526  -0.2234602  44.3640686   9.7629526  -1.6094602  44.6990686
  20.6199526  -6.8514602  41.0520686  19.9909526  -7.5524602  41.2230686
  20.1679526  -6.2664602  40.4440686  18.8499526   1.5885398  49.0600686
  18.7799526   2.3525398  48.4890686  19.1659526   0.8885398  48.4880686
  21.6209526   4.5195398  42.4080686  22.2449526   4.5135398  41.6820686
  22.0619526   4.0345398  43.1060686   8.6789526 -13.6614602  45.6550686
   9.0029526 -14.4494602  45.2200686   9.4649526 -13.2354602  45.9980686
  22.2449526 -20.8494602  49.3890686  21.8549526 -20.1014602  48.9370686
  22.1799526 -21.5694602  48.7620686  35.6249526  -5.9584602  48.1600686
  35.5389526  -5.3804602  47.4020686  35.2779526  -5.4484602  48.8920686
  15.4439526 -15.1454602  44.0190686  16.1079526 -14.6234602  43.5690686
  15.0779526 -14.5524602  44.6760686  14.8839526  -7.7594602  47.6090686
  14.2489526  -8.0204602  48.2760686  15.4549526  -8.5214602  47.5100686
  29.5449526 -17.9244602  43.1810686  28.7719526 -17.9544602  42.6170686
  29.8879526 -17.0374602  43.0700686  18.2819526   4.7675398  42.0750686
  18.3409526   5.7175398  42.1770686  18.7289526   4.4155398  42.8440686
  21.6229526  -2.0034602  48.3240686  21.1109526  -2.5684602  48.9020686
  20.9969526  -1.3494602  48.0120686  12.0069526  -7.4494602  46.5710686
  12.3329526  -8.2484602  46.9860686  11.4859526  -7.0214602  47.2500686
  10.0899526   2.1915398  45.5100686   9.6499526   1.6015398  46.1220686
  10.8809526   1.7205398  45.2480686  14.4669526   7.2825398  42.1970686
  13.7709526   6.7575398  41.8020686  14.3769526   7.1305398  43.1380686
  22.7799526  -2.9224602  45.0660686  22.9569526  -2.9264602  44.1260686
  23.3379526  -3.6164602  45.4180686  13.0969526 -20.6494602  44.9800686
  13.9459526 -21.0584602  44.8110686  13.2509526 -19.7144602  44.8480686
  16.5019526 -12.8084602  47.0810686  16.9909526 -13.0744602  47.8600686
  17.1089526 -12.2474602  46.5980686  15.7529526   1.5555398  46.2440686
  16.2539526   1.1735398  46.9650686  16.3949526   1.6805398  45.5450686
  19.2809526 -18.5024602  47.1660686  19.6729526 -18.0224602  47.8960686
  19.9159526 -19.1894602  46.9610686  11.5799526 -17.2144602  49.1280686
  10.9089526 -17.8524602  49.3680686  11.8419526 -17.4624602  48.2420686
  19.7059526 -18.7874602  43.1630686  19.3379526 -18.4174602  42.3610686
  20.3649526 -18.1504602  43.4410686  20.6949526 -11.8364602  43.6850686
  21.1719526 -12.5834602  44.0450686  21.3109526 -11.1054602  43.7480686
  17.7709526 -10.2444602  40.9920686  18.0529526  -9.5644602  40.3800686
  17.6839526  -9.7904602  41.8310686  13.2879526   7.2565398  47.9090686
  12.7129526   7.7925398  48.4540686  14.0289526   7.8275398  47.7060686
  29.2489526  -9.5484602  49.2110686  29.2929526  -8.5974602  49.1190686
  29.9079526  -9.8804602  48.6010686  17.2329526 -12.9854602  43.4630686
  17.8899526 -12.9244602  42.7700686  17.6839526 -12.6764602  44.2490686
  19.6059526 -12.1374602  47.5610686  20.0139526 -12.5734602  46.8120686
  19.7079526 -12.7564602  48.2840686  15.5919526 -17.3914602  49.1290686
  15.9529526 -17.0754602  48.3010686  16.0709526 -18.2014602  49.3060686
  11.2619526 -13.4894602  47.0750686  10.6899526 -13.1984602  47.7850686
  11.4129526 -12.7034602  46.5500686  14.7359526  -5.9404602  41.0780686
  15.2279526  -6.6234602  41.5330686  15.2399526  -5.1404602  41.2280686
  16.8619526 -18.6454602  46.1580686  17.7109526 -18.7944602  46.5760686
  16.8899526 -19.1744602  45.3610686  26.8659526  -4.5084602  47.3100686
  26.7159526  -3.7334602  46.7700686  26.2199526  -4.4404602  48.0130686
  16.5849526  -5.5984602  44.3910686  16.8559526  -5.7304602  45.3000686
  16.9959526  -4.7724602  44.1360686  19.4199526   1.9095398  44.5490686
  18.6609526   1.3935398  44.2780686  20.1649526   1.4765398  44.1330686
  10.9459526   6.7375398  46.6270686  10.6229526   7.5925398  46.3420686
  11.8299526   6.9095398  46.9490686  26.0809526 -13.1824602  46.4860686
  26.9989526 -13.1514602  46.7570686  25.9349526 -14.0944602  46.2370686
  12.8929526  -5.4514602  44.8290686  13.6849526  -5.8874602  44.5150686
  12.7079526  -5.8684602  45.6710686  22.7249526  -9.8784602  44.2400686
  23.5449526 -10.3554602  44.3630686  22.5539526  -9.4704602  45.0900686
  15.9779526  -1.1134602  42.1160686  15.3729526  -1.7514602  42.4940686
  15.8619526  -0.3274602  42.6500686  20.5339526 -20.9654602  45.6420686
  21.3509526 -20.9864602  46.1390686  20.8079526 -21.0194602  44.7260686
  18.9509526 -12.6584602  41.3350686  18.5629526 -11.8274602  41.0630686
  19.8949526 -12.5034602  41.3090686  21.8219526 -16.4994602  47.2530686
  22.3779526 -17.2754602  47.1840686  22.3579526 -15.8604602  47.7230686
  26.8939526 -10.5764602  49.3360686  27.7969526 -10.2674602  49.2580686
  26.3789526  -9.9404602  48.8390686  20.7659526  -9.4894602  48.8280686
  20.0479526  -9.0824602  49.3140686  20.4809526 -10.3924602  48.6910686
  10.2879526  -6.2424602  48.5120686   9.6899526  -6.1154602  47.7760686
   9.8159526  -6.8224602  49.1080686  20.0429526  -3.3384602  45.2280686
  19.9159526  -3.0514602  46.1320686  20.9759526  -3.2024602  45.0620686
  12.3789526  -4.9324602  41.7610686  13.2879526  -5.1284602  41.9900686
  12.1849526  -5.5184602  41.0300686  25.0539526 -16.7514602  40.8510686
  24.1419526 -16.4834602  40.9670686  25.2879526 -17.1704602  41.6800686
  13.1719526  -9.7734602  43.6430686  12.3519526  -9.2804602  43.6060686
  13.8099526  -9.1514602  43.9920686  18.9699526  -9.5884602  43.6570686
  18.6859526  -9.5664602  44.5700686  19.3739526 -10.4494602  43.5510686
  13.4719526 -17.6514602  46.7950686  13.9139526 -17.3684602  47.5950686
  13.8669526 -17.1214602  46.1020686  28.0829526  -4.7124602  42.0030686
  28.4399526  -3.8384602  41.8440686  27.4949526  -4.5994602  42.7490686
  21.9889526   5.0395398  49.3840686  21.9259526   5.2955398  50.3050686
  21.9369526   4.0835398  49.3970686  25.0639526 -11.3334602  44.8570686
  25.6539526 -10.5894602  44.9820686  25.3159526 -11.9564602  45.5380686
  15.0919526  -7.7284602  44.8040686  15.7739526  -7.1144602  44.5330686
  15.0159526  -7.6014602  45.7500686  15.5959526   8.0205398  45.2370686
  16.3499526   8.2865398  44.7100686  15.7519526   8.4165398  46.0940686
  24.9469526 -15.7324602  46.8370686  25.8639526 -15.9174602  46.6350686
  24.4579526 -16.1224602  46.1130686  16.7399526  -9.6874602  48.3930686
  17.4939526  -9.2514602  48.7900686  16.3679526 -10.2154602  49.0990686
  14.9139526 -11.8244602  42.4190686  15.7889526 -12.1344602  42.6510686
  14.4599526 -11.7354602  43.2570686  34.2229526  -8.0394602  47.0930686
  33.3029526  -7.8054602  46.9710686  34.6209526  -7.2554602  47.4710686
  12.4659526 -15.6784602  45.0570686  13.0279526 -14.9364602  44.8340686
  12.2169526 -15.5254602  45.9690686  30.6769526 -10.2534602  43.8580686
  29.7849526  -9.9074602  43.8400686  31.2019526  -9.5854602  43.4170686
  24.1489526 -17.2384602  44.2110686  24.4129526 -18.1014602  44.5300686
  23.4229526 -17.4164602  43.6120686  35.9209526 -14.2574602  42.8050686
  35.9599526 -14.5514602  43.7150686  36.6299526 -14.7324602  42.3700686
  12.7639526   2.0905398  40.5990686  13.1849526   2.3395398  41.4220686
  13.4739526   1.7355398  40.0650686  10.1179526  -3.2614602  41.9500686
  10.2469526  -2.3134602  41.9790686  10.9629526  -3.6104602  41.6690686
  10.6449526  -8.7474602  43.7920686   9.8119526  -9.1154602  44.0890686
  10.5519526  -7.8044602  43.9280686  17.2099526 -19.7664602  43.9290686
  16.6599526 -19.6954602  43.1480686  18.0639526 -19.4354602  43.6510686
  14.8919526  -4.9854602  47.5810686  14.7049526  -5.9154602  47.7060686
  14.9229526  -4.6244602  48.4670686  20.1239526  -7.1274602  43.7580686
  20.5199526  -6.8524602  42.9320686  19.6919526  -7.9564602  43.5530686
  14.3009526 -13.5234602  45.9030686  13.7319526 -12.7714602  46.0680686
  15.0589526 -13.3804602  46.4690686  28.1549526 -11.8894602  42.5310686
  28.6229526 -12.5124602  43.0860686  28.6349526 -11.8984602  41.7020686
  11.9849526  -2.6764602  47.0080686  12.3819526  -1.8314602  47.2210686
  12.4989526  -3.0034602  46.2700686   7.9679526   7.6035398  41.7340686
   8.2679526   8.1155398  40.9830686   8.1279526   6.6935398  41.4840686
  23.2419526  -4.6944602  47.4300686  22.5369526  -4.9884602  46.8520686
  22.7999526  -4.4524602  48.2440686  16.8059526  -4.2654602  41.1610686
  17.5709526  -4.6404602  40.7250686  17.1679526  -3.7684602  41.8950686
  21.4769526  -0.5944602  41.5680686  20.6069526  -0.3094602  41.2890686
  21.9389526  -0.7884602  40.7530686  34.0199526  -9.6214602  42.3780686
  34.0109526  -9.0464602  43.1440686  34.7239526 -10.2454602  42.5530686
  22.9239526 -18.2184602  42.0100686  23.4829526 -18.9944602  41.9720686
  22.5789526 -18.1274602  41.1220686  23.9889526   8.4145398  46.1950686
  23.8399526   7.6795398  46.7910686  23.7059526   8.0905398  45.3400686
  16.9199526   5.6995398  45.9180686  16.0229526   5.9175398  45.6640686
  17.4579526   6.0135398  45.1910686  18.1769526   4.1775398  47.8420686
  17.9839526   4.6595398  48.6450686  17.8499526   4.7405398  47.1400686
  21.0569526  -5.9974602  46.3080686  21.2079526  -6.9354602  46.1940686
  20.4729526  -5.7594602  45.5880686  16.8119526   6.5405398  49.1330686
  16.5119526   6.5325398  48.2250686  16.2369526   7.1685398  49.5700686
  20.9499526 -14.7904602  42.9870686  20.1579526 -14.3274602  42.7110686
  20.6409526 -15.4354602  43.6230686  17.5959526  -1.6624602  46.6270686
  16.9459526  -2.0154602  46.0200686  17.0849526  -1.1514602  47.2550686
  20.1809526 -16.4034602  45.1810686  20.7729526 -16.4124602  45.9330686
  19.4879526 -17.0214602  45.4140686   7.1279526  -0.0514602  45.2160686
   8.0209526  -0.3744602  45.1000686   6.5799526  -0.6924602  44.7620686
  22.8509526   4.3525398  45.2630686  22.7309526   3.5705398  44.7230686
  22.0099526   4.4695398  45.7060686  12.8879526  -0.1324602  47.2820686
  13.5439526   0.2505398  47.8640686  12.0719526  -0.0944602  47.7810686
  24.5749526   6.1425398  48.2570686  23.7289526   5.7595398  48.4870686
  24.9619526   5.5195398  47.6420686   9.3999526  -2.7424602  46.0410686
   8.7529526  -2.9034602  46.7290686  10.2449526  -2.8774602  46.4700686
  21.3959526   7.2525398  47.8890686  21.8459526   6.6175398  48.4450686
  21.0569526   6.7345398  47.1590686  13.5859526  -2.6254602  42.8970686
  12.9939526  -2.0104602  42.4640686  13.0869526  -3.4404602  42.9520686
  14.3549526   1.5595398  43.9090686  14.6629526   2.3225398  43.4210686
  14.7359526   1.6625398  44.7810686  16.2569526 -16.0914602  46.2650686
  15.9409526 -15.8584602  45.3920686  16.5089526 -17.0114602  46.1920686
  10.3369526  -6.0454602  43.7270686  10.7259526  -5.3874602  43.1510686
  10.8899526  -6.0374602  44.5080686  18.3609526   7.8945398  41.2710686
  18.2339526   7.5715398  40.3790686  17.8159526   8.6805398  41.3210686
  13.7949526   3.3375398  47.5410686  14.4039526   2.8545398  46.9830686
  13.1419526   3.6895398  46.9360686   7.8709526  -3.7514602  43.5870686
   8.4649526  -3.6964602  44.3360686   8.3959526  -3.4604602  42.8420686
  17.9959526   0.7425398  42.4620686  17.9609526  -0.1414602  42.0960686
  17.5239526   1.2835398  41.8290686   7.7049526  -6.7864602  42.9500686
   7.0759526  -6.0754602  43.0690686   8.5559526  -6.3864602  43.1270686
  27.1759526 -18.4974602  41.9350686  27.5229526 -19.1814602  41.3620686
  26.3149526 -18.8214602  42.2000686  17.9559526  -3.0574602  43.2810686
  17.7619526  -2.1254602  43.3860686  18.6519526  -3.2304602  43.9160686
  20.7339526 -21.0864602  42.3640686  19.9529526 -21.3094602  41.8580686
  20.7389526 -20.1294602  42.3900686  10.2639526 -20.9464602  45.0910686
  11.2189526 -20.8794602  45.0850686   9.9679526 -20.1214602  45.4750686
  16.5109526  -0.0744602  48.4910686  15.9069526  -0.0474602  49.2330686
  17.3009526   0.3635398  48.8090686  32.5539526   3.6415398  49.1000686
  31.6669526   3.8895398  48.8410686  32.9909526   3.4205398  48.2770686
  20.3639526   4.4915398  46.0810686  20.1679526   4.3255398  47.0030686
  19.6029526   4.1545398  45.6090686  23.7559526  -9.2464602  41.7140686
  23.2339526  -8.4914602  41.4410686  23.3219526  -9.5644602  42.5060686
  21.5909526  -8.6774602  46.3890686  21.4629526  -8.8554602  47.3210686
  20.7079526  -8.6884602  46.0190686  26.1159526  -6.8314602  46.1230686
  26.2689526  -5.9884602  46.5490686  25.9119526  -7.4294602  46.8420686
  19.2029526  -3.1804602  48.2540686  18.8349526  -2.9524602  49.1080686
  18.6549526  -2.7114602  47.6240686  32.3099526  -6.6634602  41.8700686
  32.4079526  -7.4434602  41.3230686  31.5269526  -6.2284602  41.5290686
  25.9579526   6.0805398  43.8660686  26.8169526   5.7985398  44.1790686
  25.3429526   5.7475398  44.5190686  15.4479526 -17.3514602  42.3770686
  15.5389526 -16.7084602  43.0800686  14.6269526 -17.8054602  42.5710686
  18.2919526   7.2335398  43.9860686  18.3019526   8.0645398  44.4620686
  18.6949526   7.4365398  43.1410686   8.7709526   6.9205398  48.0990686
   9.4399526   6.4115398  47.6430686   7.9859526   6.3745398  48.0610686
   8.5029526   5.2255398  40.9130686   9.2789526   5.5385398  40.4480686
   8.3249526   4.3665398  40.5310686  29.4559526  -6.8994602  49.2050686
  28.8299526  -6.8634602  49.9280686  30.2279526  -6.4374602  49.5330686
  20.0459526  -0.1634602  46.8810686  20.5759526   0.2765398  46.2160686
  19.4929526  -0.7684602  46.3860686  10.5309526 -15.3484602  42.4220686
  11.0929526 -14.6814602  42.0270686  11.0659526 -15.7304602  43.1180686
  24.1019526   2.0685398  40.6160686  24.5569526   2.8385398  40.9570686
  23.2309526   2.3885398  40.3800686  25.3489526  -8.9314602  47.9530686
  24.7969526  -9.5594602  47.4870686  24.7489526  -8.4794602  48.5460686
   7.2269526 -17.9704602  46.3540686   7.0819526 -18.8844602  46.1120686
   7.1629526 -17.9624602  47.3090686  11.8379526   4.9005398  42.5980686
  11.9209526   4.1795398  43.2220686  11.0179526   5.3315398  42.8360686
  12.6079526  -0.6654602  41.1510686  11.7029526  -0.6264602  40.8410686
  12.9589526   0.2075398  40.9770686  15.8229526   3.7565398  43.3010686
  16.5429526   3.8265398  42.6750686  15.3829526   4.6055398  43.2560686
  11.9589526   0.4765398  45.0100686  12.5739526   0.8075398  44.3550686
  12.4779526   0.4055398  45.8120686   8.2739526   2.3385398  42.7990686
   8.7939526   1.8425398  42.1670686   8.7119526   2.1925398  43.6370686
  33.5909526   1.8805398  44.4070686  34.3579526   1.7665398  43.8460686
  33.2429526   2.7385398  44.1660686  25.5769526 -13.5014602  42.1240686
  26.2899526 -13.1474602  42.6550686  25.1409526 -12.7294602  41.7620686
  21.5429526  -0.6194602  44.2950686  21.4579526  -0.7624602  43.3520686
  22.1129526  -1.3274602  44.5940686  22.8879526   7.1935398  43.7700686
  22.7519526   6.2675398  43.5700686  22.2199526   7.6505398  43.2590686
  16.1759526 -20.3534602  41.6920686  15.4919526 -21.0234602  41.6680686
  15.7629526 -19.5754602  41.3190686  21.7609526 -13.7334602  45.8720686
  22.4529526 -13.8544602  45.2220686  21.4899526 -14.6224602  46.1010686
  19.3329526 -15.1834602  48.3940686  20.1539526 -15.6104602  48.1510686
  18.6669526 -15.6274602  47.8690686  32.0509526  -6.4124602  46.9320686
  31.1619526  -6.1854602  46.6580686  32.5819526  -5.6594602  46.6740686
  26.4779526  -9.5054602  42.2250686  25.5349526  -9.4104602  42.0900686
  26.6509526 -10.4324602  42.0580686  34.8509526 -18.7444602  44.4660686
  35.3059526 -19.5114602  44.1180686  34.1309526 -18.5944602  43.8540686
  22.9599526 -14.5124602  41.1770686  22.2929526 -14.6774602  41.8440686
  23.5469526 -13.8724602  41.5780686  32.5409526 -14.5594602  46.0160686
  31.9759526 -15.3224602  45.8950686  32.8539526 -14.3504602  45.1350686
  23.7979526 -14.5234602  44.4030686  24.2869526 -14.0144602  43.7560686
  23.8749526 -15.4294602  44.1030686  36.6229526 -20.8294602  43.8930686
  37.2859526 -20.7664602  43.2060686  36.2329526 -21.6954602  43.7710686
   7.6489526 -18.0924602  42.6230686   7.9939526 -17.5874602  41.8870686
   6.7099526 -18.1594602  42.4490686  32.5429526   1.4715398  46.8640686
  33.2539526   1.0625398  47.3580686  32.9159526   1.6355398  45.9980686
  26.9189526  -9.3674602  45.3570686  27.3779526  -9.2074602  46.1810686
  26.6449526  -8.4994602  45.0620686   8.7859526  -6.9664602  46.1710686
   8.1639526  -7.0164602  45.4440686   8.8519526  -7.8654602  46.4920686
  28.7159526  -2.0424602  41.7200686  29.4939526  -2.4464602  42.1030686
  28.4759526  -1.3504602  42.3360686  36.3079526   2.2365398  46.3550686
  36.4559526   2.7895398  45.5880686  36.5209526   1.3515398  46.0580686
  32.8269526  -2.3834602  48.6970686  31.9399526  -2.4014602  49.0560686
  33.2769526  -3.1054602  49.1340686  23.7439526 -11.9604602  47.6170686
  23.3759526 -12.4274602  46.8660686  24.6479526 -12.2684602  47.6720686
  25.4329526   4.2175398  46.5600686  25.9559526   3.4705398  46.2680686
  24.6869526   4.2365398  45.9610686  11.8829526   4.2835398  45.7650686
  11.4429526   5.1075398  45.9770686  11.1699526   3.6655398  45.6050686
   7.1209526 -15.1944602  47.8060686   6.5429526 -15.6354602  47.1820686
   7.7989526 -14.7924602  47.2620686  19.1309526 -17.7404602  40.8260686
  18.5389526 -17.0174602  40.6190686  19.8059526 -17.6994602  40.1480686
  30.0619526   8.2415398  47.1970686  29.4079526   8.5785398  47.8090686
  30.7339526   7.8495398  47.7560686  37.1219526 -12.1734602  47.8640686
  36.1859526 -12.2754602  48.0360686  37.2619526 -12.6184602  47.0290686
   9.7269526 -12.6024602  49.1510686  10.1499526 -12.4004602  49.9860686
   8.8609526 -12.2014602  49.2180686  13.1559526 -18.0244602  43.8520686
  12.8029526 -17.1604602  44.0660686  12.4659526 -18.4434602  43.3370686
  27.2529526 -18.2804602  47.6910686  27.8789526 -18.8464602  48.1440686
  26.5189526 -18.1994602  48.2990686  12.9769526 -11.2484602  45.8810686
  12.7259526 -10.6924602  46.6190686  12.9629526 -10.6634602  45.1240686
  23.0419526  -5.5844602  41.1920686  22.1599526  -5.9224602  41.3450686
  23.4809526  -6.2764602  40.6970686  29.2549526 -13.7614602  49.1520686
  30.1689526 -14.0454602  49.1200686  29.2179526 -13.0054602  48.5660686
  31.4769526 -10.6314602  47.7550686  31.7849526 -10.1844602  48.5430686
  32.1889526 -10.5234602  47.1240686  31.5209526 -13.2964602  40.6830686
  32.0899526 -12.6964602  40.2010686  32.0399526 -13.5604602  41.4430686
  27.5359526 -15.8044602  46.4680686  27.7799526 -16.5904602  46.9560686
  28.3709526 -15.4294602  46.1850686   8.2939526  -3.1974602  48.6760686
   8.8769526  -3.0694602  49.4250686   7.5039526  -3.5874602  49.0500686
  31.8779526 -19.4144602  46.4160686  31.2739526 -20.1574602  46.4290686
  32.7479526 -19.8134602  46.4210686  34.8559526  -7.9304602  44.3640686
  34.8289526  -7.6874602  45.2890686  34.9909526  -7.1024602  43.9020686
  31.5949526 -17.7434602  48.8540686  31.7559526 -18.4034602  48.1800686
  32.4589526 -17.5664602  49.2280686  34.9819526  -5.5694602  42.3310686
  34.1529526  -6.0344602  42.2120686  35.3599526  -5.5254602  41.4530686
  11.4959526 -10.6594602  41.5650686  10.7899526 -10.0864602  41.8640686
  12.2139526 -10.4954602  42.1770686  34.3279526 -16.5594602  48.5780686
  34.4809526 -15.6384602  48.7910686  34.6509526 -16.6544602  47.6820686
  23.8759526  -3.1084602  42.1980686  23.8119526  -3.9994602  41.8540686
  24.5029526  -2.6734602  41.6210686  15.6039526  -2.6044602  45.2110686
  15.5349526  -3.5344602  45.4270686  14.9639526  -2.4724602  44.5120686
   8.0049526  -9.3314602  44.0300686   7.8569526  -8.6694602  43.3550686
   7.3349526  -9.9954602  43.8660686  30.1109526 -13.0954602  44.0220686
  30.3049526 -12.1594602  43.9670686  30.5279526 -13.3794602  44.8360686
  25.4869526 -19.7624602  45.0240686  25.2619526 -20.4974602  45.5940686
  26.4429526 -19.7224602  45.0510686   8.0689526  -9.7454602  46.9830686
   7.8959526  -9.9604602  46.0660686   7.9279526 -10.5674602  47.4530686
  30.1779526 -15.4844602  42.8030686  30.2079526 -14.5664602  43.0720686
  29.6669526 -15.4814602  41.9940686  26.5199526   7.4885398  41.3860686
  27.4769526   7.4805398  41.3800686  26.2799526   6.9685398  42.1530686
  37.0899526 -18.2174602  49.2520686  36.3779526 -18.8424602  49.3890686
  36.7139526 -17.3694602  49.4860686  15.0129526 -20.6004602  47.5780686
  15.4759526 -20.1254602  48.2680686  14.7019526 -19.9174602  46.9840686
  33.1529526 -15.3274602  43.3900686  33.8659526 -15.0534602  42.8130686
  32.5659526 -15.8284602  42.8240686  32.5019526  -0.7144602  42.0490686
  32.5899526  -0.5294602  41.1140686  33.3139526  -1.1644602  42.2820686
  36.4949526 -11.7524602  41.7330686  36.8729526 -11.9124602  40.8690686
  35.9779526 -12.5374602  41.9180686  28.8539526  -8.1684602  42.9010686
  28.8639526  -7.8224602  42.0090686  28.0459526  -8.6794602  42.9510686
  35.8499526   6.6545398  43.5650686  35.9659526   5.7555398  43.8730686
  36.5679526   6.7925398  42.9480686  29.5229526   2.9415398  41.3360686
  28.7469526   2.8695398  41.8920686  29.5959526   2.0855398  40.9140686
  26.6469526  -2.2704602  45.3090686  26.9179526  -3.0284602  44.7920686
  26.6619526  -1.5404602  44.6900686  34.0299526 -10.9584602  46.0650686
  34.3869526 -10.0934602  46.2630686  34.6329526 -11.3244602  45.4170686
   8.8039526 -16.7814602  44.7440686   8.4829526 -17.1984602  43.9440686
   8.1759526 -17.0404602  45.4180686  33.8019526   7.3645398  41.7410686
  34.6219526   7.0135398  42.0880686  33.4219526   7.8535398  42.4710686
  31.2659526  -3.0204602  42.2830686  31.6239526  -2.1554602  42.0820686
  31.9179526  -3.4224602  42.8580686  34.9789526 -18.5904602  41.3060686
  34.2289526 -19.1634602  41.4670686  34.6609526 -17.7134602  41.5170686
  31.0909526 -16.8224602  45.5880686  30.9749526 -17.0064602  44.6560686
  31.3379526 -17.6644602  45.9700686  12.3679526  -9.9734602  48.0650686
  11.9349526 -10.6064602  48.6390686  12.6649526  -9.2804602  48.6540686
  34.5639526 -13.2334602  47.8940686  34.1689526 -12.4734602  47.4660686
  34.5429526 -13.9204602  47.2280686  11.7289526 -13.3234602  40.8780686
  11.6399526 -12.3874602  41.0570686  12.6699526 -13.4894602  40.9330686
  10.8759526 -18.3904602  46.0580686  11.8299526 -18.3134602  46.0910686
  10.5929526 -17.6454602  45.5280686  25.6059526   4.1715398  41.2340686
  25.7029526   5.0735398  41.5400686  26.2869526   4.0705398  40.5680686
  29.6369526  -5.9524602  44.8050686  28.9789526  -5.4414602  44.3330686
  29.5799526  -6.8284602  44.4240686  29.0609526   8.2015398  44.8070686
  28.5819526   9.0235398  44.9030686  29.3829526   8.0065398  45.6870686
  23.3269526 -18.9364602  47.5530686  23.5879526 -19.8124602  47.2700686
  24.1469526 -18.5094602  47.7990686  27.4189526   2.5785398  43.3410686
  26.6949526   3.0675398  42.9520686  27.3399526   2.7405398  44.2810686
  34.2389526  -0.1144602  48.6430686  34.1069526   0.4695398  49.3900686
  33.4559526  -0.6644602  48.6260686  28.2039526 -19.4184602  45.2560686
  28.2009526 -18.8694602  46.0410686  28.6509526 -18.8894602  44.5950686
   9.1699526   6.8045398  44.0250686   8.7379526   7.2455398  43.2940686
   9.5569526   7.5145398  44.5380686  24.5489526  -1.9144602  47.4500686
  23.6609526  -2.2594602  47.5440686  24.8109526  -2.1654602  46.5640686
  27.0219526   2.0175398  45.9690686  26.5489526   1.1855398  45.9860686
  27.9359526   1.7765398  46.1200686  28.6159526   5.4945398  44.4510686
  28.9229526   5.1735398  43.6030686  28.8909526   6.4115398  44.4740686
  29.6559526   1.6535398  46.7660686  29.6039526   0.8695398  47.3130686
  30.5739526   1.7005398  46.4990686  31.2019526   0.2965398  44.2520686
  31.8469526   0.9195398  44.5860686  31.5269526   0.0555398  43.3850686
  32.4129526  -5.0094602  44.2470686  32.5199526  -5.6654602  43.5580686
  31.5789526  -5.2314602  44.6620686  26.8029526   0.0105398  48.1080686
  26.2079526  -0.6574602  47.7670686  27.6009526  -0.4694602  48.3270686
  34.5609526   4.3065398  47.0240686  34.8479526   3.4035398  47.1540686
  34.4859526   4.4005398  46.0740686  32.6059526 -19.3884602  42.7910686
  31.7869526 -18.8954602  42.7460686  32.3689526 -20.2104602  43.2200686
  34.9279526  -5.0514602  45.4780686  34.2549526  -5.0844602  44.7980686
  35.3169526  -4.1804602  45.3890686  31.7179526   8.1835398  43.7820686
  30.7709526   8.0705398  43.8580686  32.0719526   7.7745398  44.5720686
  31.2449526   6.9395398  49.1880686  32.0769526   6.4665398  49.2030686
  30.6139526   6.3265398  49.5650686  34.7199526   6.8135398  48.1030686
  34.6569526   5.8615398  48.0220686  34.6449526   6.9785398  49.0430686
  35.7329526   1.8875398  42.6490686  36.6369526   2.1925398  42.7170686
  35.3199526   2.4945398  42.0350686  22.5509526   1.9325398  43.5530686
  23.0339526   1.7505398  42.7470686  22.4559526   1.0775398  43.9730686
  32.2569526   3.6295398  42.3280686  31.3459526   3.3385398  42.3440686
  32.4779526   3.6755398  41.3980686  28.2439526   5.6365398  47.0650686
  28.5089526   5.4095398  46.1740686  28.6259526   6.5005398  47.2170686
  35.7819526  -2.3284602  44.3790686  36.6499526  -2.7064602  44.2340686
  35.2519526  -2.6614602  43.6550686  34.4099526  -2.6394602  42.0590686
  34.9029526  -2.3544602  41.2890686  34.4369526  -3.5954602  42.0210686
   7.2609526   4.3425398  44.1590686   7.6929526   3.8005398  43.4980686
   7.9339526   4.9635398  44.4370686  28.9969526  -1.2644602  48.8030686
  28.8819526  -2.2084602  48.9060686  29.5019526  -1.1704602  47.9960686
  34.4469526 -20.3494602  46.7840686  34.7209526 -19.8664602  46.0040686
  35.1039526 -21.0384602  46.8830686  36.5949526 -11.9204602  44.4560686
  36.3269526 -12.0884602  43.5530686  37.4289526 -12.3804602  44.5490686
   7.2189526 -21.2504602  46.6610686   7.2239526 -21.3224602  45.7060686
   7.7639526 -21.9784602  46.9590686  24.8929526 -20.0314602  42.5320686
  24.9079526 -20.2214602  43.4700686  25.0859526 -20.8714602  42.1140686
  28.3749526  -0.0884602  43.7200686  29.2809526   0.0725398  43.9830686
  28.0189526   0.7815398  43.5430686   7.6409526   1.5035398  48.9030686
   7.2759526   1.9085398  48.1170686   6.9469526   1.5815398  49.5580686
  33.1689526   7.1265398  45.8440686  33.6079526   7.4165398  46.6440686
  33.6209526   6.3175398  45.6030686  29.0889526   6.0175398  41.5350686
  30.0139526   6.0825398  41.2980686  28.8179526   5.1595398  41.2080686
  24.7029526  -0.7844602  43.7410686  24.5049526  -1.6354602  43.3490686
  24.8629526  -0.2084602  42.9940686  10.8859526 -18.8894602  42.0530686
  10.2489526 -18.4314602  41.5040686  10.3589526 -19.4754602  42.5950686
  33.2479526   4.8745398  44.4260686  32.7569526   5.6835398  44.5690686
  32.8999526   4.5255398  43.6060686   9.7939526  -0.3684602  41.0520686
   8.9529526   0.0895398  41.0610686   9.9799526  -0.5084602  40.1230686
  30.6829526  -1.0834602  46.6200686  31.5449526  -1.4824602  46.7390686
  30.7139526  -0.6994602  45.7440686  29.4059526 -20.9264602  40.5370686
  29.9389526 -21.2034602  41.2820686  30.0419526 -20.7124602  39.8540686
   7.9589526 -15.3124602  41.4220686   8.2879526 -14.8584602  40.6460686
   8.7029526 -15.3314602  42.0230686  26.4919526  25.4745398 -16.0209314
  26.3969526  24.5965398 -15.6509314  25.7269526  25.5795398 -16.5859314
  14.0539526  35.7445398 -15.3499314  13.3489526  35.1875398 -15.0199314
  14.0789526  36.4835398 -14.7419314  28.2149526   9.6195398   2.2520686
  28.0549526   8.7705398   1.8400686  28.7249526  10.1085398   1.6060686
  12.9689526  15.4395398 -10.7819314  12.5039526  14.6425398 -11.0349314
  12.9929526  15.9665398 -11.5809314  22.1949526  26.2985398  -3.8779314
  21.3839526  26.1165398  -4.3529314  22.8799526  26.2425398  -4.5449314
   7.7259526  22.5435398 -10.9469314   6.9029526  22.8635398 -11.3189314
   7.9989526  21.8425398 -11.5379314  25.9459526  27.0835398 -10.1989314
  25.5589526  26.6425398  -9.4419314  25.2389526  27.6265398 -10.5469314
  18.3159526  19.8185398 -13.7789314  17.7319526  20.2685398 -13.1689314
  18.7689526  19.1675398 -13.2429314  24.5569526  23.6975398  -1.5749314
  25.0379526  23.6145398  -0.7509314  25.2219526  23.5785398  -2.2529314
  29.1699526  17.9745398 -13.1469314  29.0809526  18.2085398 -14.0709314
  29.8289526  18.5815398 -12.8089314  12.7049526  22.1565398 -10.5329314
  12.8549526  22.1875398  -9.5879314  11.8439526  22.5565398 -10.6529314
  36.3979526  27.4305398  -4.2809314  36.7379526  28.0035398  -3.5929314
  36.9879526  27.5685398  -5.0219314  20.0209526  34.0225398  -5.2849314
  20.9539526  33.8305398  -5.3739314  19.6139526  33.5915398  -6.0359314
  35.1269526  14.0335398 -13.9339314  34.1869526  14.1535398 -14.0699314
  35.3059526  13.1495398 -14.2529314  25.4529526  29.8295398 -18.8019314
  24.7989526  30.5195398 -18.9159314  25.3689526  29.2875398 -19.5859314
  17.7749526  24.4545398 -12.8179314  18.2239526  25.2955398 -12.7339314
  16.9669526  24.5635398 -12.3159314  35.8899526  18.4095398  -3.7099314
  34.9509526  18.4705398  -3.8839314  35.9469526  18.0665398  -2.8179314
   9.4789526  29.2405398 -15.6369314  10.2719526  29.7765398 -15.6359314
   9.7629526  28.3905398 -15.3009314  25.0679526  22.9265398  -8.8179314
  24.3419526  22.8345398  -9.4349314  24.7939526  22.4265398  -8.0489314
  20.6199526  23.1485398 -18.9479314  19.9909526  22.4475398 -18.7769314
  20.1679526  23.7335398 -19.5559314  24.0229526  30.4985398  -6.1159314
  24.3679526  31.3745398  -6.2849314  24.7529526  29.9105398  -6.3099314
  18.8499526  31.5885398 -10.9399314  18.7799526  32.3525398 -11.5109314
  19.1659526  30.8885398 -11.5119314  21.6209526  34.5195398 -17.5919314
  22.2449526  34.5135398 -18.3179314  22.0619526  34.0345398 -16.8939314
   8.6789526  16.3385398 -14.3449314   9.0029526  15.5505398 -14.7799314
   9.4649526  16.7645398 -14.0019314  22.2449526   9.1505398 -10.6109314
  21.8549526   9.8985398 -11.0629314  22.1799526   8.4305398 -11.2379314
  22.5089526  22.5055398  -6.3879314  21.8999526  22.4515398  -5.6509314
  21.9579526  22.7265398  -7.1389314  13.9649526  35.3965398  -9.7249314
  14.1819526  36.2795398  -9.4269314  14.1069526  35.4205398 -10.6709314
  35.6249526  24.0415398 -11.8399314  35.5389526  24.6195398 -12.5979314
  35.2779526  24.5515398 -11.1079314  15.4439526  14.8545398 -15.9809314
  16.1079526  15.3765398 -16.4309314  15.0779526  15.4475398 -15.3239314
  31.4749526  17.8815398  -2.1179314  31.8109526  16.9885398  -2.1879314
  31.3809526  18.0295398  -1.1769314  14.8839526  22.2405398 -12.3909314
  14.2489526  21.9795398 -11.7239314  15.4549526  21.4785398 -12.4899314
  22.9409526  22.4635398 -10.4719314  22.2549526  23.0365398 -10.8139314
  22.4919526  21.6415398 -10.2749314  29.5449526  12.0755398 -16.8189314
  28.7719526  12.0455398 -17.3829314  29.8879526  12.9625398 -16.9299314
  28.3189526  28.9715398  -4.5359314  27.9659526  29.5085398  -3.8259314
  29.0379526  29.4915398  -4.8959314  18.2819526  34.7675398 -17.9249314
  18.3409526  35.7175398 -17.8229314  18.7289526  34.4155398 -17.1559314
  11.7769526  12.0815398  -7.1359314  10.9239526  12.4205398  -7.4099314
  12.3209526  12.8615398  -7.0289314  21.6229526  27.9965398 -11.6759314
  21.1109526  27.4315398 -11.0979314  20.9969526  28.6505398 -11.9879314
  12.0069526  22.5505398 -13.4289314  12.3329526  21.7515398 -13.0139314
  11.4859526  22.9785398 -12.7499314  10.0899526  32.1915398 -14.4899314
   9.6499526  31.6015398 -13.8779314  10.8809526  31.7205398 -14.7519314
  19.8169526  13.2125398  -6.4479314  20.6459526  12.7465398  -6.5599314
  19.4599526  12.8715398  -5.6269314  18.3679526  17.1225398 -10.1329314
  18.4309526  16.4135398  -9.4919314  17.7629526  17.7495398  -9.7389314
  14.4669526  37.2825398 -17.8029314  13.7709526  36.7575398 -18.1979314
  14.3769526  37.1305398 -16.8619314  22.7799526  27.0775398 -14.9339314
  22.9569526  27.0735398 -15.8739314  23.3379526  26.3835398 -14.5819314
  13.0969526   9.3505398 -15.0199314  13.9459526   8.9415398 -15.1889314
  13.2509526  10.2855398 -15.1519314  16.5019526  17.1915398 -12.9189314
  16.9909526  16.9255398 -12.1399314  17.1089526  17.7525398 -13.4019314
  15.7529526  31.5555398 -13.7559314  16.2539526  31.1735398 -13.0349314
  16.3949526  31.6805398 -14.4549314  19.2809526  11.4975398 -12.8339314
  19.6729526  11.9775398 -12.1039314  19.9159526  10.8105398 -13.0389314
  14.3549526  13.9575398  -8.7129314  13.7399526  14.5355398  -9.1649314
  14.7309526  13.4165398  -9.4069314  11.5799526  12.7855398 -10.8719314
  10.9089526  12.1475398 -10.6319314  11.8419526  12.5375398 -11.7579314
  25.2959526  19.6675398  -8.3909314  25.8799526  19.6285398  -9.1479314
  24.4189526  19.5645398  -8.7579314  19.7059526  11.2125398 -16.8369314
  19.3379526  11.5825398 -17.6389314  20.3649526  11.8495398 -16.5589314
  20.6949526  18.1635398 -16.3149314  21.1719526  17.4165398 -15.9549314
  21.3109526  18.8945398 -16.2519314  17.7709526  19.7555398 -19.0079314
  18.0529526  20.4355398 -19.6199314  17.6839526  20.2095398 -18.1689314
  13.2879526  37.2565398 -12.0909314  12.7129526  37.7925398 -11.5459314
  14.0289526  37.8275398 -12.2939314  22.7289526  15.0825398 -10.4959314
  22.7099526  15.0825398  -9.5389314  23.6309526  15.3165398 -10.7169314
  23.2529526  28.7985398  -9.6419314  22.9869526  28.5745398 -10.5329314
  22.8849526  28.1015398  -9.0989314  25.9269526  28.1595398  -5.7939314
  26.7429526  28.2785398  -5.3089314  26.1329526  28.4415398  -6.6849314
  29.2489526  20.4515398 -10.7889314  29.2929526  21.4025398 -10.8809314
  29.9079526  20.1195398 -11.3989314   8.6659526  10.3075398  -7.1039314
   8.7599526   9.8685398  -7.9489314   8.8709526  11.2245398  -7.2849314
  17.2329526  17.0145398 -16.5369314  17.8899526  17.0755398 -17.2299314
  17.6839526  17.3235398 -15.7509314  17.0629526  10.0915398 -10.3169314
  17.9759526  10.2545398 -10.5539314  17.1059526   9.7255398  -9.4339314
  19.6059526  17.8625398 -12.4389314  20.0139526  17.4265398 -13.1879314
  19.7079526  17.2435398 -11.7159314  27.7719526  23.0255398  -8.6249314
  27.5599526  23.4425398  -7.7899314  26.9209526  22.8265398  -9.0159314
  24.4239526   9.7855398  -2.1109314  24.2359526  10.6355398  -1.7129314
  23.6819526   9.2345398  -1.8629314  20.5309526  24.6435398 -10.9789314
  20.4689526  24.4115398 -11.9049314  19.8699526  25.3245398 -10.8569314
  15.5919526  12.6085398 -10.8709314  15.9529526  12.9245398 -11.6989314
  16.0709526  11.7985398 -10.6939314  16.3119526  38.4285398   0.0710686
  16.2109526  37.7895398  -0.6339314  16.8629526  39.1155398  -0.3049314
  11.2619526  16.5105398 -12.9249314  10.6899526  16.8015398 -12.2149314
  11.4129526  17.2965398 -13.4499314  28.0209526  16.5925398  -1.6299314
  27.5799526  16.9105398  -0.8419314  28.3859526  17.3795398  -2.0349314
  10.6369526  37.6655398  -5.0949314  10.5429526  37.2015398  -5.9269314
  11.1679526  38.4335398  -5.3069314  14.7359526  24.0595398 -18.9219314
  15.2279526  23.3765398 -18.4669314  15.2399526  24.8595398 -18.7719314
  16.8619526  11.3545398 -13.8419314  17.7109526  11.2055398 -13.4239314
  16.8899526  10.8255398 -14.6389314  32.0349526  19.1795398   2.9510686
  31.4959526  18.6105398   3.5000686  31.4379526  19.8695398   2.6600686
  26.8659526  25.4915398 -12.6899314  26.7159526  26.2665398 -13.2299314
  26.2199526  25.5595398 -11.9869314  32.0169526  23.7905398  -9.8959314
  32.4059526  23.0575398  -9.4179314  32.4179526  23.7515398 -10.7639314
  12.8319526  20.0205398  -7.1969314  12.5999526  20.2395398  -6.2939314
  13.6749526  20.4505398  -7.3379314  36.1609526  10.8385398  -5.9029314
  36.2799526  11.1935398  -5.0219314  37.0499526  10.6975398  -6.2279314
  21.0319526  36.2175398  -8.2779314  20.7019526  36.1075398  -7.3859314
  20.3029526  36.6135398  -8.7559314  11.1709526  19.4425398  -9.2919314
  10.4479526  20.0535398  -9.1549314  11.7769526  19.6225398  -8.5719314
   9.5599526  10.7395398  -9.9969314   9.0109526  11.4775398 -10.2639314
   8.9719526   9.9845398 -10.0159314  16.5849526  24.4015398 -15.6089314
  16.8559526  24.2695398 -14.6999314  16.9959526  25.2275398 -15.8639314
  19.4199526  31.9095398 -15.4509314  18.6609526  31.3935398 -15.7219314
  20.1649526  31.4765398 -15.8669314  10.9459526  36.7375398 -13.3729314
  10.6229526  37.5925398 -13.6579314  11.8299526  36.9095398 -13.0509314
  26.0809526  16.8175398 -13.5139314  26.9989526  16.8485398 -13.2429314
  25.9349526  15.9055398 -13.7629314  12.8929526  24.5485398 -15.1709314
  13.6849526  24.1125398 -15.4849314  12.7079526  24.1315398 -14.3289314
  22.7249526  20.1215398 -15.7599314  23.5449526  19.6445398 -15.6369314
  22.5539526  20.5295398 -14.9099314  20.7109526  23.5285398  -8.2269314
  19.9259526  23.8405398  -7.7769314  20.5909526  23.8015398  -9.1359314
  15.9779526  28.8865398 -17.8839314  15.3729526  28.2485398 -17.5059314
  15.8619526  29.6725398 -17.3499314  20.5339526   9.0345398 -14.3579314
  21.3509526   9.0135398 -13.8609314  20.8079526   8.9805398 -15.2739314
  15.2209526  25.7925398  -9.7989314  15.2019526  26.7105398 -10.0719314
  15.0869526  25.8215398  -8.8519314  18.9509526  17.3415398 -18.6649314
  18.5629526  18.1725398 -18.9369314  19.8949526  17.4965398 -18.6909314
  32.8659526  24.0475398  -3.8879314  33.6849526  23.9225398  -4.3669314
  32.9209526  23.4345398  -3.1549314  21.8219526  13.5005398 -12.7469314
  22.3779526  12.7245398 -12.8159314  22.3579526  14.1395398 -12.2769314
  34.5429526  20.9515398  -6.8319314  34.0579526  20.1315398  -6.7449314
  35.4059526  20.6875398  -7.1509314  26.8939526  19.4235398 -10.6639314
  27.7969526  19.7325398 -10.7419314  26.3789526  20.0595398 -11.1609314
  20.7659526  20.5105398 -11.1719314  20.0479526  20.9175398 -10.6859314
  20.4809526  19.6075398 -11.3089314  11.5219526   8.4405398 -10.3309314
  12.0439526   8.7995398  -9.6139314  10.7979526   9.0585398 -10.4339314
  10.2879526  23.7575398 -11.4879314   9.6899526  23.8845398 -12.2239314
   9.8159526  23.1775398 -10.8919314  35.8919526  15.2225398  -4.3659314
  35.6849526  14.8105398  -5.2039314  35.0679526  15.6215398  -4.0849314
  27.4439526   9.6625398  -5.0889314  28.3349526   9.5355398  -5.4149314
  27.4179526  10.5795398  -4.8139314  20.0429526  26.6615398 -14.7719314
  19.9159526  26.9485398 -13.8679314  20.9759526  26.7975398 -14.9379314
  12.3789526  25.0675398 -18.2389314  13.2879526  24.8715398 -18.0099314
  12.1849526  24.4815398 -18.9699314  13.0509526   9.7665398  -8.6439314
  13.7989526  10.3615398  -8.5999314  12.2919526  10.3205398  -8.4599314
  21.1269526  17.7725398  -9.4509314  20.1759526  17.6985398  -9.5329314
  21.4669526  16.9895398  -9.8849314  25.0159526  22.3655398  -5.3429314
  24.0629526  22.3855398  -5.2629314  25.3349526  22.6145398  -4.4749314
  25.0539526  13.2485398 -19.1489314  24.1419526  13.5165398 -19.0329314
  25.2879526  12.8295398 -18.3199314  13.1719526  20.2265398 -16.3569314
  12.3519526  20.7195398 -16.3939314  13.8099526  20.8485398 -16.0079314
  27.8749526  20.4305398  -1.8819314  28.4209526  19.7175398  -2.2129314
  28.0009526  21.1415398  -2.5109314  23.1859526  19.2175398  -9.9009314
  22.3969526  18.8285398  -9.5239314  23.4229526  18.6325398 -10.6199314
  18.9699526  20.4115398 -16.3429314  18.6859526  20.4335398 -15.4299314
  19.3739526  19.5505398 -16.4489314  23.8919526  29.0375398  -3.5139314
  24.6309526  28.4435398  -3.6449314  23.8099526  29.5065398  -4.3449314
  13.4719526  12.3485398 -13.2049314  13.9139526  12.6315398 -12.4049314
  13.8669526  12.8785398 -13.8979314  28.0829526  25.2875398 -17.9969314
  28.4399526  26.1615398 -18.1559314  27.4949526  25.4005398 -17.2509314
  34.2429526  21.5575398  -2.9529314  34.5909526  20.9715398  -2.2809314
  33.5609526  21.0455398  -3.3879314  35.5719526  19.4055398  -9.8419314
  35.9859526  19.6455398  -9.0129314  35.9919526  19.9685398 -10.4919314
  21.9889526  35.0395398 -10.6159314  21.9259526  35.2955398  -9.6949314
  21.9369526  34.0835398 -10.6029314  13.5219526  17.7115398  -9.8149314
  12.7439526  18.2665398  -9.8719314  13.2829526  16.9135398 -10.2869314
  25.0639526  18.6665398 -15.1429314  25.6539526  19.4105398 -15.0179314
  25.3159526  18.0435398 -14.4619314  17.6229526  13.3075398  -8.3979314
  17.5369526  13.9785398  -9.0759314  18.4699526  13.4855398  -7.9899314
  15.0919526  22.2715398 -15.1959314  15.7739526  22.8855398 -15.4669314
  15.0159526  22.3985398 -14.2499314  15.5959526  38.0205398 -14.7629314
  16.3499526  38.2865398 -15.2899314  15.7519526  38.4165398 -13.9059314
  11.1279526  35.7265398  -9.5299314  12.0629526  35.5185398  -9.5279314
  11.0899526  36.6575398  -9.7479314  24.9469526  14.2675398 -13.1629314
  25.8639526  14.0825398 -13.3649314  24.4579526  13.8775398 -13.8869314
  31.9109526  15.9005398 -10.8729314  32.0209526  15.2015398 -11.5179314
  32.5889526  16.5385398 -11.0929314  16.7399526  20.3125398 -11.6069314
  17.4939526  20.7485398 -11.2099314  16.3679526  19.7845398 -10.9009314
  24.9309526  19.8035398   1.5900686  24.6679526  18.9675398   1.9740686
  24.1139526  20.2935398   1.4970686  23.4969526  12.0995398  -0.4349314
  24.1999526  12.7495398  -0.4379314  23.2869526  11.9775398   0.4910686
  14.9139526  18.1755398 -17.5809314  15.7889526  17.8655398 -17.3489314
  14.4599526  18.2645398 -16.7429314  34.2229526  21.9605398 -12.9069314
  33.3029526  22.1945398 -13.0289314  34.6209526  22.7445398 -12.5289314
  22.7889526  22.1165398   2.0260686  22.0189526  22.6825398   1.9700686
  22.8349526  21.8645398   2.9480686  12.4659526  14.3215398 -14.9429314
  13.0279526  15.0635398 -15.1659314  12.2169526  14.4745398 -14.0309314
  28.5899526  29.3615398   2.1800686  28.6199526  30.3155398   2.1060686
  28.3069526  29.0635398   1.3160686  27.3979526  21.1525398   2.0370686
  26.6559526  21.1775398   2.6400686  27.1239526  21.6935398   1.2960686
  30.6769526  19.7465398 -16.1419314  29.7849526  20.0925398 -16.1599314
  31.2019526  20.4145398 -16.5829314  25.5069526  23.2415398   1.2430686
  25.9299526  23.6625398   1.9920686  24.6149526  23.0625398   1.5410686
  27.2169526  25.8845398  -2.2259314  27.9469526  26.4875398  -2.3649314
  27.3549526  25.5395398  -1.3439314  24.1489526  12.7615398 -15.7889314
  24.4129526  11.8985398 -15.4699314  23.4229526  12.5835398 -16.3879314
  35.9209526  15.7425398 -17.1949314  35.9599526  15.4485398 -16.2849314
  36.6299526  15.2675398 -17.6299314  28.6669526  18.5635398  -5.9249314
  27.8919526  18.9855398  -5.5539314  28.7899526  18.9895398  -6.7729314
  21.7699526  37.7095398   7.2180686  22.4629526  38.2425398   6.8270686
  21.4279526  38.2475398   7.9320686  12.7639526  32.0905398 -19.4009314
  13.1849526  32.3395398 -18.5779314  13.4739526  31.7355398 -19.9349314
  10.1179526  26.7385398 -18.0499314  10.2469526  27.6865398 -18.0209314
  10.9629526  26.3895398 -18.3309314  10.6449526  21.2525398 -16.2079314
   9.8119526  20.8845398 -15.9109314  10.5519526  22.1955398 -16.0719314
  27.2059526  12.3075398  -4.4559314  27.6979526  12.9715398  -4.9389314
  26.3539526  12.2765398  -4.8909314  16.2399526  38.1595398   3.0210686
  17.0249526  38.7045398   3.0710686  16.2579526  37.7925398   2.1370686
  17.2099526  10.2335398 -16.0709314  16.6599526  10.3045398 -16.8519314
  18.0639526  10.5645398 -16.3489314  31.8579526  14.5405398  -2.3369314
  30.9189526  14.5005398  -2.5189314  32.2719526  14.2115398  -3.1349314
  14.8919526  25.0145398 -12.4189314  14.7049526  24.0845398 -12.2939314
  14.9229526  25.3755398 -11.5329314  36.0239526   8.3755398   7.8850686
  36.3939526   9.1195398   8.3600686  36.5489526   8.3145398   7.0870686
  14.3009526  16.4765398 -14.0969314  13.7319526  17.2285398 -13.9319314
  15.0589526  16.6195398 -13.5309314  37.2059526  16.6355398  -8.0609314
  37.2829526  15.7215398  -8.3359314  36.3839526  16.9345398  -8.4489314
  28.1549526  18.1105398 -17.4689314  28.6229526  17.4875398 -16.9139314
  28.6349526  18.1015398 -18.2979314  11.9849526  27.3235398 -12.9919314
  12.3819526  28.1685398 -12.7789314  12.4989526  26.9965398 -13.7299314
   7.9679526  37.6035398 -18.2659314   8.2679526  38.1155398 -19.0169314
   8.1279526  36.6935398 -18.5159314  23.2419526  25.3055398 -12.5699314
  22.5369526  25.0115398 -13.1479314  22.7999526  25.5475398 -11.7559314
  22.5329526   8.6315398  -6.2539314  23.1979526   7.9815398  -6.0249314
  22.6779526   9.3505398  -5.6399314  31.1169526  27.8505398   1.9270686
  31.3749526  26.9665398   2.1890686  30.2619526  27.9825398   2.3380686
  21.4859526  26.6655398  -8.7429314  21.4609526  26.6135398  -7.7879314
  21.3769526  25.7595398  -9.0349314  21.7229526  31.6135398  -9.3169314
  21.9109526  32.0785398 -10.1329314  21.8459526  30.6895398  -9.5339314
  16.8059526  25.7345398 -18.8389314  17.5709526  25.3595398 -19.2749314
  17.1679526  26.2315398 -18.1049314  16.7329526  36.2975398   5.4890686
  16.5469526  36.0475398   4.5840686  17.4799526  36.8925398   5.4250686
  21.4769526  29.4055398 -18.4319314  20.6069526  29.6905398 -18.7109314
  21.9389526  29.2115398 -19.2469314  26.9179526  24.2195398  -6.3959314
  27.6769526  24.1715398  -5.8149314  26.3839526  23.4615398  -6.1569314
  35.5229526   9.7875398  -1.7109314  35.4659526   8.8635398  -1.4669314
  35.4689526  10.2585398  -0.8789314  34.0199526  20.3785398 -17.6219314
  34.0109526  20.9535398 -16.8559314  34.7239526  19.7545398 -17.4469314
  22.9239526  11.7815398 -17.9899314  23.4829526  11.0055398 -18.0279314
  22.5789526  11.8725398 -18.8779314  23.0009526  36.1155398   1.4470686
  22.5509526  35.4175398   0.9710686  22.3879526  36.3695398   2.1360686
  24.7269526  38.5445398   3.1680686  24.5179526  37.8445398   2.5500686
  24.3979526  38.2275398   4.0090686  23.9889526  38.4145398 -13.8049314
  23.8399526  37.6795398 -13.2089314  23.7059526  38.0905398 -14.6599314
  16.9199526  35.6995398 -14.0819314  16.0229526  35.9175398 -14.3359314
  17.4579526  36.0135398 -14.8089314  25.5189526  37.8665398   8.8460686
  25.0329526  37.0485398   8.7430686  25.8199526  37.8545398   9.7550686
   8.2119526  14.5245398  -9.8419314   7.7389526  14.7915398 -10.6299314
   9.0109526  15.0515398  -9.8509314  18.1769526  34.1775398 -12.1579314
  17.9839526  34.6595398 -11.3549314  17.8499526  34.7405398 -12.8599314
  21.0569526  24.0025398 -13.6919314  21.2079526  23.0645398 -13.8059314
  20.4729526  24.2405398 -14.4119314   9.2579526  13.1475398  -7.3929314
   8.7819526  13.4885398  -8.1499314   8.9339526  13.6615398  -6.6539314
  16.8119526  36.5405398 -10.8669314  16.5119526  36.5325398 -11.7749314
  16.2369526  37.1685398 -10.4299314  35.1429526  34.3605398  -7.2779314
  35.3389526  35.2015398  -6.8649314  34.1889526  34.3485398  -7.3579314
  20.9499526  15.2095398 -17.0129314  20.1579526  15.6725398 -17.2889314
  20.6409526  14.5645398 -16.3769314  12.0899526  37.9905398  -1.2389314
  12.2239526  38.1395398  -0.3029314  11.7049526  38.8065398  -1.5589314
  17.5959526  28.3375398 -13.3729314  16.9459526  27.9845398 -13.9799314
  17.0849526  28.8485398 -12.7449314  20.1809526  13.5965398 -14.8189314
  20.7729526  13.5875398 -14.0669314  19.4879526  12.9785398 -14.5859314
   7.1279526  29.9485398 -14.7839314   8.0209526  29.6255398 -14.8999314
   6.5799526  29.3075398 -15.2379314  22.8509526  34.3525398 -14.7369314
  22.7309526  33.5705398 -15.2769314  22.0099526  34.4695398 -14.2939314
  21.3079526  28.7995398  -6.2919314  21.5509526  29.6865398  -6.5579314
  22.1349526  28.3895398  -6.0379314  12.8879526  29.8675398 -12.7179314
  13.5439526  30.2505398 -12.1359314  12.0719526  29.9055398 -12.2189314
  37.0989526  30.4125398  10.3730686  36.4039526  30.4905398  11.0270686
  37.0339526  29.5115398  10.0590686  24.5749526  36.1425398 -11.7429314
  23.7289526  35.7595398 -11.5129314  24.9619526  35.5195398 -12.3579314
  21.3959526  37.2525398 -12.1109314  21.8459526  36.6175398 -11.5549314
  21.0569526  36.7345398 -12.8409314  31.4089526  33.1865398  -5.3769314
  31.9869526  32.4535398  -5.5849314  31.6389526  33.8625398  -6.0149314
  13.5859526  27.3745398 -17.1029314  12.9939526  27.9895398 -17.5359314
  13.0869526  26.5595398 -17.0479314  14.3549526  31.5595398 -16.0909314
  14.6629526  32.3225398 -16.5789314  14.7359526  31.6625398 -15.2189314
  22.5349526  33.5715398  -5.4689314  23.3359526  33.6815398  -5.9809314
  22.1709526  32.7385398  -5.7689314  16.2569526  13.9085398 -13.7349314
  15.9409526  14.1415398 -14.6079314  16.5089526  12.9885398 -13.8079314
  10.3369526  23.9545398 -16.2729314  10.7259526  24.6125398 -16.8489314
  10.8899526  23.9625398 -15.4919314  11.2689526  26.2515398 -10.5539314
  11.3209526  26.6325398 -11.4299314  10.6819526  25.5025398 -10.6519314
  18.2539526  37.8335398  -5.3839314  19.0499526  37.4925398  -4.9759314
  17.9189526  38.4765398  -4.7579314  18.3609526  37.8945398 -18.7289314
  18.2339526  37.5715398 -19.6209314  17.8159526  38.6805398 -18.6789314
  13.7949526  33.3375398 -12.4589314  14.4039526  32.8545398 -13.0169314
  13.1419526  33.6895398 -13.0639314   7.8709526  26.2485398 -16.4129314
   8.4649526  26.3035398 -15.6639314   8.3959526  26.5395398 -17.1579314
  17.0589526  33.9755398  -7.9679314  17.1509526  34.6745398  -7.3199314
  16.6209526  34.3935398  -8.7099314  19.9459526  10.5225398  -9.8749314
  20.7239526  10.0265398  -9.6189314  19.7289526  11.0445398  -9.1029314
  17.9959526  30.7425398 -17.5379314  17.9609526  29.8585398 -17.9039314
  17.5239526  31.2835398 -18.1709314   7.7049526  23.2135398 -17.0499314
   7.0759526  23.9245398 -16.9309314   8.5559526  23.6135398 -16.8729314
  22.9429526  32.3535398 -11.5439314  23.0039526  32.2435398 -12.4929314
  23.8469526  32.4805398 -11.2579314  18.7199526  31.7295398  -8.2579314
  19.0039526  31.7235398  -9.1719314  18.0399526  32.4025398  -8.2219314
  27.1759526  11.5025398 -18.0649314  27.5229526  10.8185398 -18.6379314
  26.3149526  11.1785398 -17.7999314  35.2669526  10.8925398   0.6680686
  34.4649526  10.6795398   1.1460686  35.5189526  11.7565398   0.9930686
  26.3109526  37.3725398 -10.1759314  25.7719526  37.7605398  -9.4869314
  25.6879526  37.1325398 -10.8619314  13.8289526  32.6485398  -9.4979314
  13.9289526  33.5565398  -9.2129314  13.9589526  32.6785398 -10.4459314
  33.4279526  16.9915398  -4.7759314  33.0219526  17.8585398  -4.7559314
  32.6899526  16.3815398  -4.7829314  10.1959526  30.4165398 -11.3029314
  10.5089526  31.1735398 -10.8069314   9.2419526  30.4935398 -11.2819314
  14.1519526  29.9205398 -10.2059314  14.3529526  30.6825398  -9.6619314
  13.6389526  29.3475398  -9.6359314  19.1559526  37.3575398  -9.7789314
  18.3179526  37.0095398 -10.0849314  19.6109526  37.6235398 -10.5779314
  17.9559526  26.9425398 -16.7189314  17.7619526  27.8745398 -16.6139314
  18.6519526  26.7695398 -16.0839314  20.7339526   8.9135398 -17.6359314
  19.9529526   8.6905398 -18.1419314  20.7389526   9.8705398 -17.6099314
  10.2639526   9.0535398 -14.9089314  11.2189526   9.1205398 -14.9149314
   9.9679526   9.8785398 -14.5249314  16.5109526  29.9255398 -11.5089314
  15.9069526  29.9525398 -10.7669314  17.3009526  30.3635398 -11.1909314
  35.9449526  32.3835398  -9.0209314  35.2229526  31.7605398  -9.1109314
  35.6359526  33.0175398  -8.3739314  32.5539526  33.6415398 -10.8999314
  31.6669526  33.8895398 -11.1589314  32.9909526  33.4205398 -11.7229314
  31.5659526  29.2985398  -0.4589314  32.4099526  29.5625398  -0.8259314
  31.7919526  28.7065398   0.2590686  20.0409526   9.7755398  -6.9479314
  20.6639526   9.0755398  -6.7509314  19.1969526   9.4345398  -6.6529314
  36.9329526  35.3665398 -10.5339314  36.3269526  34.6685398 -10.7869314
  37.5219526  34.9545398  -9.9019314  20.3639526  34.4915398 -13.9189314
  20.1679526  34.3255398 -12.9969314  19.6029526  34.1545398 -14.3909314
  21.0579526  31.6665398  -6.7319314  20.1509526  31.5885398  -7.0299314
  21.5649526  31.7825398  -7.5349314  35.9089526  37.4335398   0.0650686
  36.4399526  37.2685398   0.8440686  35.0069526  37.3095398   0.3590686
  23.7559526  20.7535398 -18.2859314  23.2339526  21.5085398 -18.5589314
  23.3219526  20.4355398 -17.4939314  21.5909526  21.3225398 -13.6109314
  21.4629526  21.1445398 -12.6789314  20.7079526  21.3115398 -13.9809314
  17.9859526  28.2205398  -9.5459314  17.1939526  28.2775398  -9.0119314
  18.6999526  28.4035398  -8.9349314  26.1159526  23.1685398 -13.8769314
  26.2689526  24.0115398 -13.4509314  25.9119526  22.5705398 -13.1579314
  13.8589526  36.9435398  -5.2499314  14.4499526  37.6765398  -5.0759314
  13.0539526  37.1685398  -4.7839314  34.4429526   8.7805398  -6.6499314
  34.5999526   8.1435398  -5.9529314  35.0269526   9.5105398  -6.4439314
  19.2029526  26.8195398 -11.7459314  18.8349526  27.0475398 -10.8919314
  18.6549526  27.2885398 -12.3759314  31.7529526  28.0455398  -6.9979314
  31.9949526  27.3365398  -6.4029314  31.2809526  27.6115398  -7.7089314
   8.5439526  38.1815398  -3.5899314   8.5229526  39.1325398  -3.4789314
   9.3749526  38.0105398  -4.0329314  32.3099526  23.3365398 -18.1299314
  32.4079526  22.5565398 -18.6769314  31.5269526  23.7715398 -18.4709314
  25.9579526  36.0805398 -16.1339314  26.8169526  35.7985398 -15.8209314
  25.3429526  35.7475398 -15.4809314  15.4479526  12.6485398 -17.6229314
  15.5389526  13.2915398 -16.9199314  14.6269526  12.1945398 -17.4289314
  18.2919526  37.2335398 -16.0139314  18.3019526  38.0645398 -15.5379314
  18.6949526  37.4365398 -16.8589314  17.3009526  36.9045398  -7.5209314
  18.0979526  36.7665398  -8.0329314  17.6129526  37.0745398  -6.6319314
   8.7709526  36.9205398 -11.9009314   9.4399526  36.4115398 -12.3569314
   7.9859526  36.3745398 -11.9389314  33.0139526  31.2315398  -6.2789314
  32.8179526  31.2145398  -7.2159314  33.1719526  30.3165398  -6.0489314
  26.3999526  35.1475398  -5.4509314  26.7009526  35.3455398  -4.5639314
  26.4519526  34.1935398  -5.5149314  10.4439526  33.1795398 -10.4169314
  10.8459526  34.0155398 -10.1819314   9.6079526  33.4195398 -10.8179314
   8.5029526  35.2255398 -19.0869314   9.2789526  35.5385398 -19.5519314
   8.3249526  34.3665398 -19.4689314  36.6989526  36.3385398  -4.1599314
  37.1949526  35.6045398  -4.5239314  37.3549526  37.0175398  -4.0019314
  29.4559526  23.1005398 -10.7949314  28.8299526  23.1365398 -10.0719314
  30.2279526  23.5625398 -10.4669314  20.0459526  29.8365398 -13.1189314
  20.5759526  30.2765398 -13.7839314  19.4929526  29.2315398 -13.6139314
  10.5309526  14.6515398 -17.5779314  11.0929526  15.3185398 -17.9729314
  11.0659526  14.2695398 -16.8819314  24.1019526  32.0685398 -19.3839314
  24.5569526  32.8385398 -19.0429314  23.2309526  32.3885398 -19.6199314
  25.3489526  21.0685398 -12.0469314  24.7969526  20.4405398 -12.5129314
  24.7489526  21.5205398 -11.4539314   7.2269526  12.0295398 -13.6459314
   7.0819526  11.1155398 -13.8879314   7.1629526  12.0375398 -12.6909314
  26.9939526   8.7615398   6.8320686  26.3969526   8.5235398   7.5410686
  27.3859526   9.5875398   7.1150686  33.4659526  31.6185398   2.6640686
  32.9969526  32.3115398   2.2000686  34.3319526  31.6005398   2.2570686
  11.8379526  34.9005398 -17.4019314  11.9209526  34.1795398 -16.7779314
  11.0179526  35.3315398 -17.1639314  30.4619526  37.8245398  -2.5119314
  30.3979526  36.8695398  -2.4969314  30.0849526  38.0765398  -3.3539314
  23.5009526  36.4015398  -3.4429314  23.8829526  36.9235398  -2.7389314
  24.0719526  36.5585398  -4.1959314  12.6079526  29.3345398 -18.8489314
  11.7029526  29.3735398 -19.1589314  12.9589526  30.2075398 -19.0229314
  30.4309526  33.8385398   6.7860686  30.9639526  34.2555398   6.1080686
  29.7339526  34.4695398   6.9640686  28.1899526  35.6675398   6.7950686
  27.8419526  35.8095398   5.9150686  28.4399526  36.5405398   7.0980686
  18.7479526  37.9585398   5.6400686  18.6099526  38.7465398   6.1660686
  19.6839526  37.7755398   5.7230686  31.6109526  25.4715398   2.9060686
  32.2109526  24.7775398   3.1790686  30.7829526  25.2575398   3.3350686
  21.6919526  37.2745398   4.0270686  22.2389526  36.8335398   4.6780686
  21.7389526  38.2005398   4.2620686  24.3259526  34.3105398   4.7470686
  25.0819526  34.2275398   4.1660686  23.7339526  33.6105398   4.4720686
  23.4729526  33.4985398  -2.9599314  23.0709526  33.4495398  -3.8269314
  23.7839526  34.4005398  -2.8899314  15.8229526  33.7565398 -16.6989314
  16.5429526  33.8265398 -17.3249314  15.3829526  34.6055398 -16.7439314
  33.8609526  12.1355398   3.2440686  33.8629526  11.3075398   3.7240686
  34.4449526  12.7045398   3.7440686  18.4279526  37.4225398   8.4150686
  17.4779526  37.4165398   8.2970686  18.7809526  37.2675398   7.5390686
  11.9589526  30.4765398 -14.9899314  12.5739526  30.8075398 -15.6449314
  12.4779526  30.4055398 -14.1879314   8.2739526  32.3385398 -17.2009314
   8.7939526  31.8425398 -17.8329314   8.7119526  32.1925398 -16.3629314
  28.7359526  34.3285398  -0.2349314  28.9739526  33.9595398  -1.0849314
  28.2279526  33.6375398   0.1920686  33.5909526  31.8805398 -15.5929314
  34.3579526  31.7665398 -16.1539314  33.2429526  32.7385398 -15.8339314
  19.1969526  36.8075398   2.6690686  19.9529526  36.8185398   3.2560686
  19.0039526  37.7315398   2.5090686  25.5769526  16.4985398 -17.8759314
  26.2899526  16.8525398 -17.3449314  25.1409526  17.2705398 -18.2379314
  21.5429526  29.3805398 -15.7049314  21.4579526  29.2375398 -16.6479314
  22.1129526  28.6725398 -15.4059314  14.2299526  36.0175398  -1.7989314
  13.9189526  35.7465398  -2.6629314  13.6309526  36.7165398  -1.5369314
  32.1839526  11.4835398   5.9210686  31.8499526  11.1645398   5.0830686
  32.7269526  10.7675398   6.2510686  22.8879526  37.1935398 -16.2299314
  22.7519526  36.2675398 -16.4299314  22.2199526  37.6505398 -16.7409314
  16.1759526   9.6465398 -18.3079314  15.4919526   8.9765398 -18.3319314
  15.7629526  10.4245398 -18.6809314  15.1229526  37.6385398  -8.9459314
  15.7019526  37.3165398  -8.2559314  14.6009526  38.3195398  -8.5219314
  15.5129526  37.0575398   8.3140686  15.1869526  36.4735398   7.6290686
  15.1109526  36.7305398   9.1190686  21.7609526  16.2665398 -14.1279314
  22.4529526  16.1455398 -14.7779314  21.4899526  15.3775398 -13.8989314
  19.3329526  14.8165398 -11.6059314  20.1539526  14.3895398 -11.8489314
  18.6669526  14.3725398 -12.1309314  32.0509526  23.5875398 -13.0679314
  31.1619526  23.8145398 -13.3419314  32.5819526  24.3405398 -13.3259314
  26.4669526  16.0165398  -6.6909314  26.6539526  16.4495398  -7.5239314
  26.0699526  16.6985398  -6.1489314  37.0289526  21.4035398   0.6740686
  36.3309526  22.0195398   0.4500686  36.6389526  20.5405398   0.5350686
  30.5269526  16.5705398  -4.8829314  30.1529526  16.9385398  -5.6839314
  30.1609526  15.6875398  -4.8309314  30.9319526  16.3815398  -8.3499314
  30.3549526  16.9555398  -8.8529314  31.5929526  16.0945398  -8.9799314
  31.2299526   9.8205398  -8.5409314  30.3139526   9.9395398  -8.2909314
  31.1999526   9.2125398  -9.2789314  26.4779526  20.4945398 -17.7749314
  25.5349526  20.5895398 -17.9099314  26.6509526  19.5675398 -17.9419314
  25.7129526  13.3605398  -6.9749314  26.2829526  12.9535398  -7.6279314
  26.0869526  14.2315398  -6.8389314  35.3109526  31.7935398  -4.6149314
  34.6539526  31.9235398  -5.2979314  36.1259526  31.6355398  -5.0929314
  34.8509526  11.2555398 -15.5339314  35.3059526  10.4885398 -15.8819314
  34.1309526  11.4055398 -16.1459314  22.9599526  15.4875398 -18.8229314
  22.2929526  15.3225398 -18.1559314  23.5469526  16.1275398 -18.4219314
  33.0299526  13.9065398  -4.7149314  33.2489526  14.3095398  -5.5549314
  32.8529526  12.9905398  -4.9269314  32.5409526  15.4405398 -13.9839314
  31.9759526  14.6775398 -14.1049314  32.8539526  15.6495398 -14.8649314
  25.5559526  32.2745398 -10.2949314  25.9279526  33.0865398 -10.6369314
  26.0049526  31.5815398 -10.7789314  23.7979526  15.4765398 -15.5969314
  24.2869526  15.9855398 -16.2439314  23.8749526  14.5705398 -15.8969314
  32.3869526  14.0875398   0.2560686  33.2619526  13.7525398   0.0600686
  32.0119526  14.2945398  -0.5999314  12.5209526  17.3955398  -6.1369314
  11.6349526  17.3145398  -5.7849314  12.4969526  18.1935398  -6.6659314
  36.6229526   9.1705398 -16.1069314  37.2859526   9.2335398 -16.7939314
  36.2329526   8.3045398 -16.2289314  26.2109526  19.7915398  -5.6469314
  25.8209526  19.8695398  -6.5179314  25.8529526  20.5305398  -5.1559314
  30.5409526  25.0845398  -1.5629314  30.0999526  25.7165398  -2.1309314
  29.9329526  24.9505398  -0.8359314   8.3329526  33.8525398  -8.3939314
   8.9739526  33.2695398  -8.8009314   7.5309526  33.3325398  -8.3459314
   7.6489526  11.9075398 -17.3769314   7.9939526  12.4125398 -18.1129314
   6.7099526  11.8405398 -17.5509314  32.5429526  31.4715398 -13.1359314
  33.2539526  31.0625398 -12.6419314  32.9159526  31.6355398 -14.0019314
  26.9189526  20.6325398 -14.6429314  27.3779526  20.7925398 -13.8189314
  26.6449526  21.5005398 -14.9379314  32.6509526  19.6025398  -4.0079314
  32.2089526  19.0675398  -3.3489314  31.9489526  20.1125398  -4.4129314
   8.7859526  23.0335398 -13.8289314   8.1639526  22.9835398 -14.5559314
   8.8519526  22.1345398 -13.5079314  33.8329526  12.0845398  -1.6209314
  33.5559526  12.5535398  -2.4079314  33.1369526  11.4475398  -1.4629314
  28.7159526  27.9575398 -18.2799314  29.4939526  27.5535398 -17.8969314
  28.4759526  28.6495398 -17.6639314  36.3079526  32.2365398 -13.6449314
  36.4559526  32.7895398 -14.4119314  36.5209526  31.3515398 -13.9419314
  28.3569526   9.2265398 -10.8999314  28.4899526   9.5705398 -10.0169314
  27.6819526   8.5555398 -10.7959314  34.1109526   9.0855398   3.8730686
  33.2019526   8.8435398   3.6940686  34.5489526   8.2545398   4.0570686
  34.1449526  28.8215398  -5.9499314  33.2959526  28.5365398  -6.2869314
  34.5229526  28.0355398  -5.5559314  30.4529526  13.5155398  -7.6679314
  30.8549526  14.3515398  -7.9059314  31.1939526  12.9355398  -7.4899314
  32.0659526   9.4995398   0.6300686  31.7629526   9.8675398  -0.1999314
  31.5659526   9.9685398   1.2980686  29.6219526  32.3835398  -3.2139314
  30.4099526  32.2965398  -2.6779314  29.9489526  32.5375398  -4.0999314
  33.4119526  15.9635398   4.4590686  33.3919526  15.2235398   5.0650686
  34.1949526  16.4555398   4.7070686   7.2639526  20.3035398  -7.8769314
   7.5309526  20.0755398  -6.9869314   7.9899526  20.8235398  -8.2199314
  32.8269526  27.6165398 -11.3029314  31.9399526  27.5985398 -10.9439314
  33.2769526  26.8945398 -10.8659314  23.7439526  18.0395398 -12.3829314
  23.3759526  17.5725398 -13.1339314  24.6479526  17.7315398 -12.3279314
  25.4329526  34.2175398 -13.4399314  25.9559526  33.4705398 -13.7319314
  24.6869526  34.2365398 -14.0389314  11.8829526  34.2835398 -14.2349314
  11.4429526  35.1075398 -14.0229314  11.1699526  33.6655398 -14.3949314
  30.3319526  31.6365398  -8.9909314  30.0609526  32.1955398  -9.7199314
  29.6409526  30.9775398  -8.9259314  32.8279526  34.9845398  -3.4829314
  32.6299526  34.0895398  -3.7569314  31.9759526  35.3635398  -3.2669314
   7.1209526  14.8055398 -12.1939314   6.5429526  14.3645398 -12.8179314
   7.7989526  15.2075398 -12.7379314  19.1309526  12.2595398 -19.1739314
  18.5389526  12.9825398 -19.3809314  19.8059526  12.3005398 -19.8519314
  31.5499526  10.5575398  -1.9169314  31.7879526  10.6545398  -2.8389314
  31.0099526   9.7675398  -1.8899314  34.7639526  15.7005398   9.0100686
  35.2829526  16.4745398   8.7900686  34.6039526  15.2705398   8.1700686
  28.3239526  10.2005398  -8.4329314  28.1469526  10.2185398  -7.4929314
  28.1879526  11.1035398  -8.7199314  29.2069526  14.6945398  -3.0219314
  28.6659526  15.2885398  -2.5019314  28.7709526  14.6545398  -3.8729314
  35.0849526  10.0145398 -10.1869314  34.7589526   9.2445398  -9.7219314
  34.6759526   9.9645398 -11.0509314  28.6619526  24.5585398  -0.0219314
  28.3489526  25.0255398   0.7520686  29.1179526  23.7925398   0.3270686
  31.6789526  21.2745398  -1.4239314  32.4209526  20.7625398  -1.7469314
  32.0789526  21.9895398  -0.9279314  36.9569526  30.9555398   4.2360686
  37.6099526  30.4815398   3.7220686  36.2129526  31.0595398   3.6420686
  30.0619526  38.2415398 -12.8029314  29.4079526  38.5785398 -12.1909314
  30.7339526  37.8495398 -12.2439314  37.1219526  17.8265398 -12.1359314
  36.1859526  17.7245398 -11.9639314  37.2619526  17.3815398 -12.9709314
  29.3469526  20.8325398  -7.9999314  28.8419526  21.6245398  -8.1839314
  29.2979526  20.3235398  -8.8089314  35.0839526  17.4055398  -0.7699314
  35.9749526  17.2575398  -0.4509314  34.5319526  16.8785398  -0.1919314
  33.0249526  29.5695398   9.4530686  32.5199526  29.4885398   8.6450686
  33.5269526  30.3775398   9.3430686   9.7269526  17.3975398 -10.8489314
  10.1499526  17.5995398 -10.0139314   8.8609526  17.7985398 -10.7819314
  34.5939526  14.4285398  -6.8069314  34.7249526  13.6035398  -7.2749314
  34.5229526  15.0875398  -7.4979314  13.1559526  11.9755398 -16.1479314
  12.8029526  12.8395398 -15.9339314  12.4659526  11.5565398 -16.6629314
  27.2529526  11.7195398 -12.3089314  27.8789526  11.1535398 -11.8559314
  26.5189526  11.8005398 -11.7009314  23.9379526  38.1325398  -8.8629314
  23.4109526  37.5465398  -8.3199314  23.3689526  38.3555398  -9.5989314
  12.9769526  18.7515398 -14.1189314  12.7259526  19.3075398 -13.3809314
  12.9629526  19.3365398 -14.8759314  29.1409526  36.3185398   1.8950686
  29.3819526  35.7835398   1.1390686  29.4979526  37.1855398   1.6990686
  33.0949526  36.9215398   1.0940686  32.4779526  36.3395398   0.6490686
  32.7689526  37.8025398   0.9090686  23.0419526  24.4155398 -18.8079314
  22.1599526  24.0775398 -18.6549314  23.4809526  23.7235398 -19.3029314
  29.2549526  16.2385398 -10.8479314  30.1689526  15.9545398 -10.8799314
  29.2179526  16.9945398 -11.4339314  31.4769526  19.3685398 -12.2449314
  31.7849526  19.8155398 -11.4569314  32.1889526  19.4765398 -12.8759314
  27.5569526  36.0685398  -2.9809314  27.1049526  36.8785398  -2.7429314
  27.0029526  35.3715398  -2.6309314  24.2699526  32.9565398  -7.8889314
  24.2239526  32.5625398  -8.7599314  24.9669526  33.6095398  -7.9569314
  34.2009526  16.3935398  -8.7239314  33.7599526  17.1305398  -8.3009314
  34.3759526  16.6985398  -9.6149314  31.5209526  16.7035398 -19.3169314
  32.0899526  17.3035398 -19.7989314  32.0399526  16.4395398 -18.5569314
  34.7549526  26.3045398   0.9510686  34.0999526  26.3915398   1.6440686
  34.8829526  27.1965398   0.6280686  27.5359526  14.1955398 -13.5319314
  27.7799526  13.4095398 -13.0439314  28.3709526  14.5705398 -13.8149314
  30.1309526  34.1695398 -11.7349314  29.3069526  34.5855398 -11.9879314
  30.1489526  33.3505398 -12.2299314  22.1609526  11.5805398  -7.5099314
  23.0209526  11.1725398  -7.6129314  21.6669526  10.9665398  -6.9659314
   8.2939526  26.8025398 -11.3239314   8.8769526  26.9305398 -10.5749314
   7.5039526  26.4125398 -10.9499314  32.4189526  21.9735398  -7.9019314
  32.1229526  22.7015398  -7.3559314  33.2089526  21.6535398  -7.4659314
  34.2019526  36.3265398  -5.1829314  33.7199526  35.8195398  -4.5299314
  35.0999526  36.3515398  -4.8529314  31.8779526  10.5855398 -13.5839314
  31.2739526   9.8425398 -13.5709314  32.7479526  10.1865398 -13.5789314
  26.5079526  23.6385398  -3.3899314  27.3229526  23.1435398  -3.4769314
  26.7899526  24.5245398  -3.1619314  34.8559526  22.0695398 -15.6359314
  34.8289526  22.3125398 -14.7109314  34.9909526  22.8975398 -16.0979314
  31.5949526  12.2565398 -11.1459314  31.7559526  11.5965398 -11.8199314
  32.4589526  12.4335398 -10.7719314  34.9819526  24.4305398 -17.6689314
  34.1529526  23.9655398 -17.7879314  35.3599526  24.4745398 -18.5469314
  28.5109526  14.4295398  -5.7569314  27.8349526  14.9245398  -6.2199314
  29.1289526  14.1705398  -6.4409314  11.4959526  19.3405398 -18.4349314
  10.7899526  19.9135398 -18.1359314  12.2139526  19.5045398 -17.8229314
  25.0389526  25.6455398  -8.1869314  24.9959526  24.7095398  -8.3839314
  25.9079526  25.7685398  -7.8029314  32.5709526  20.4345398 -10.0769314
  32.2099526  20.9825398  -9.3799314  33.3699526  20.0645398  -9.7019314
  34.3279526  13.4405398 -11.4219314  34.4809526  14.3615398 -11.2089314
  34.6509526  13.3455398 -12.3179314  31.2289526  17.4415398   4.8930686
  30.5529526  16.9005398   4.4860686  32.0109526  16.8895398   4.8930686
  23.8759526  26.8915398 -17.8019314  23.8119526  26.0005398 -18.1459314
  24.5029526  27.3265398 -18.3789314  29.9389526  22.0425398   0.4770686
  30.6509526  21.7415398  -0.0879314  29.1969526  21.4835398   0.2460686
  30.3489526   8.9395398  -5.2579314  30.7939526   8.2325398  -5.7249314
  31.0389526   9.5755398  -5.0709314  15.6039526  27.3955398 -14.7889314
  15.5349526  26.4655398 -14.5729314  14.9639526  27.5275398 -15.4879314
   8.0049526  20.6685398 -15.9699314   7.8569526  21.3305398 -16.6449314
   7.3349526  20.0045398 -16.1339314  23.3519526  14.1335398  -7.6779314
  24.2459526  13.8235398  -7.5379314  22.8169526  13.3405398  -7.6569314
  32.3509526  10.9925398  -4.3329314  33.2499526  10.6685398  -4.2689314
  32.2029526  11.1055398  -5.2719314  33.1269526  18.2405398  -7.0619314
  33.4429526  17.5725398  -6.4529314  32.1899526  18.3085398  -6.8779314
  30.1109526  16.9045398 -15.9779314  30.3049526  17.8405398 -16.0329314
  30.5279526  16.6205398 -15.1639314  25.4869526  10.2375398 -14.9759314
  25.2619526   9.5025398 -14.4059314  26.4429526  10.2775398 -14.9489314
  35.0789526  17.6835398   5.9360686  35.6699526  17.7345398   6.6870686
  34.5659526  18.4905398   5.9790686  36.4979526  28.9355398  -6.9999314
  35.6059526  28.9435398  -6.6529314  36.3859526  28.9215398  -7.9499314
  26.9999526  16.8375398  -9.4169314  26.9999526  17.7215398  -9.7839314
  27.7039526  16.3855398  -9.8799314  29.4329526  26.2935398  -5.7549314
  29.5689526  27.0275398  -5.1569314  28.5859526  26.4705398  -6.1649314
   8.0689526  20.2545398 -13.0169314   7.8959526  20.0395398 -13.9339314
   7.9279526  19.4325398 -12.5469314  25.6349526  14.7055398 -10.5369314
  25.7769526  14.7755398 -11.4809314  25.9489526  15.5375398 -10.1839314
  24.6729526  10.5875398  -7.7839314  24.6259526  10.3955398  -6.8469314
  24.5319526   9.7425398  -8.2089314  30.1779526  14.5155398 -17.1969314
  30.2079526  15.4335398 -16.9279314  29.6669526  14.5185398 -18.0059314
  26.5199526  37.4885398 -18.6139314  27.4769526  37.4805398 -18.6199314
  26.2799526  36.9685398 -17.8469314  30.1829526  13.0515398   7.1340686
  30.8829526  12.6235398   6.6420686  29.5459526  13.3115398   6.4690686
  36.4929526  29.7735398  -2.6799314  36.2089526  30.5855398  -3.0999314
  37.3819526  29.9585398  -2.3779314  37.0899526  11.7825398 -10.7479314
  36.3779526  11.1575398 -10.6109314  36.7139526  12.6305398 -10.5139314
  15.0129526   9.3995398 -12.4219314  15.4759526   9.8745398 -11.7319314
  14.7019526  10.0825398 -13.0159314  33.1529526  14.6725398 -16.6099314
  33.8659526  14.9465398 -17.1869314  32.5659526  14.1715398 -17.1759314
  32.5019526  29.2855398 -17.9509314  32.5899526  29.4705398 -18.8859314
  33.3139526  28.8355398 -17.7179314  35.4559526  13.9375398  -0.1819314
  35.8939526  14.4635398  -0.8509314  35.1499526  13.1605398  -0.6499314
  28.0319526  12.8545398  -1.7279314  27.6719526  12.3765398  -2.4749314
  28.6139526  13.5065398  -2.1189314  36.4949526  18.2475398 -18.2669314
  36.8729526  18.0875398 -19.1309314  35.9779526  17.4625398 -18.0819314
  36.2659526  18.8485398   3.0020686  35.3739526  19.0585398   2.7250686
  36.1839526  18.6325398   3.9310686  34.6059526  20.1195398  -0.6559314
  34.6749526  19.1665398  -0.7159314  34.6949526  20.3085398   0.2780686
  35.2089526  21.5465398   4.5010686  35.8519526  21.1465398   5.0880686
  34.5429526  21.9075398   5.0860686  31.2029526  10.2055398   8.6320686
  31.8709526   9.9005398   8.0180686  31.4959526  11.0795398   8.8900686
  28.8539526  21.8315398 -17.0989314  28.8639526  22.1775398 -17.9909314
  28.0459526  21.3205398 -17.0489314  35.1209526  34.2405398 -19.2819314
  34.7419526  34.8545398 -19.9119314  35.8809526  34.7015398 -18.9269314
  33.6339526  14.0495398   6.4560686  32.9109526  13.4365398   6.3230686
  34.4129526  13.5645398   6.1830686  35.8499526  36.6545398 -16.4349314
  35.9659526  35.7555398 -16.1269314  36.5679526  36.7925398 -17.0519314
  29.5229526  32.9415398 -18.6639314  28.7469526  32.8695398 -18.1079314
  29.5959526  32.0855398 -19.0859314  34.0989526  16.2245398   1.4270686
  34.2539526  16.0375398   2.3530686  33.2649526  15.7955398   1.2330686
  26.6469526  27.7295398 -14.6909314  26.9179526  26.9715398 -15.2079314
  26.6619526  28.4595398 -15.3099314  34.0299526  19.0415398 -13.9349314
  34.3869526  19.9065398 -13.7369314  34.6329526  18.6755398 -14.5829314
  29.2769526  15.8195398   3.7510686  29.7229526  15.7005398   2.9130686
  29.0749526  14.9305398   4.0440686  30.1449526  35.2925398  -3.5269314
  29.2079526  35.2905398  -3.3329314  30.2679526  34.5525398  -4.1219314
  33.1729526  23.4465398   3.4290686  33.9199526  23.0395398   2.9900686
  33.2579526  23.1795398   4.3440686   8.8039526  13.2185398 -15.2559314
   8.4829526  12.8015398 -16.0559314   8.1759526  12.9595398 -14.5819314
  33.8019526  37.3645398 -18.2589314  34.6219526  37.0135398 -17.9119314
  33.4219526  37.8535398 -17.5289314  31.3459526  32.0135398  -1.1149314
  31.3659526  31.2275398  -0.5679314  32.2389526  32.0945398  -1.4509314
  34.4989526  36.5145398   8.8750686  33.9559526  37.0455398   9.4590686
  35.1589526  37.1235398   8.5430686  31.2659526  26.9795398 -17.7169314
  31.6239526  27.8445398 -17.9179314  31.9179526  26.5775398 -17.1419314
  32.3349526  23.6065398  -0.2439314  31.7709526  23.8105398   0.5030686
  32.1179526  24.2715398  -0.8969314  34.9789526  11.4095398 -18.6939314
  34.2289526  10.8365398 -18.5329314  34.6609526  12.2865398 -18.4829314
  36.3079526  20.1805398   6.7980686  36.4759526  19.6245398   7.5590686
  36.6659526  21.0345398   7.0410686  27.1579526  15.0725398   1.1940686
  27.5009526  14.2105398   0.9590686  27.9369526  15.6075398   1.3460686
  36.5039526  11.6365398  -3.4109314  36.3269526  10.8555398  -2.8859314
  35.9969526  12.3295398  -2.9869314  36.9399526  11.0645398   9.2250686
  36.4019526  11.3945398   9.9440686  36.8099526  11.6965398   8.5180686
  31.0909526  13.1775398 -14.4119314  30.9749526  12.9935398 -15.3439314
  31.3379526  12.3355398 -14.0299314  35.7879526  13.4515398   4.4900686
  36.3189526  14.1355398   4.8990686  36.3609526  12.6855398   4.4650686
  27.0929526  17.6745398   3.9260686  27.8909526  17.1465398   3.9730686
  26.3939526  17.0755398   4.1900686  30.6959526  21.1915398  -5.2899314
  30.3969526  21.0985398  -6.1939314  30.9559526  22.1095398  -5.2159314
  30.1869526  15.5645398   1.2490686  30.6619526  16.2605398   0.7950686
  30.6729526  14.7665398   1.0390686  28.3729526  12.6835398  -9.2459314
  29.2609526  12.9015398  -8.9629314  28.0469526  13.4875398  -9.6519314
  12.3679526  20.0265398 -11.9349314  11.9349526  19.3935398 -11.3609314
  12.6649526  20.7195398 -11.3459314  13.1419526  14.5095398  -6.4929314
  13.8519526  14.3965398  -7.1249314  13.0699526  15.4565398  -6.3789314
  34.0589526  34.5935398   2.6920686  34.9809526  34.6845398   2.9360686
  33.8959526  35.3225398   2.0940686  29.0969526  22.4175398  -3.3649314
  29.7379526  21.8495398  -3.7929314  29.5799526  22.8215398  -2.6439314
  31.2039526  12.1865398   1.6400686  31.6779526  12.9465398   1.3010686
  31.6319526  11.9895398   2.4730686  26.4429526  17.5655398   0.4820686
  26.0599526  18.3685398   0.8350686  26.2019526  16.8865398   1.1130686
  24.3059526  10.7125398  -5.2199314  24.5469526  10.1545398  -4.4799314
  24.0859526  11.5555398  -4.8229314  34.5639526  16.7665398 -12.1059314
  34.1689526  17.5265398 -12.5339314  34.5429526  16.0795398 -12.7719314
  11.7289526  16.6765398 -19.1219314  11.6399526  17.6125398 -18.9429314
  12.6699526  16.5105398 -19.0669314   9.5239526  37.9185398   1.8390686
   8.8569526  37.2335398   1.8210686   9.2339526  38.5535398   1.1840686
  34.2249526  20.8525398   1.9490686  33.4439526  20.3655398   2.2120686
  34.7949526  20.8265398   2.7170686  10.8759526  11.6095398 -13.9419314
  11.8299526  11.6865398 -13.9089314  10.5929526  12.3545398 -14.4719314
  29.3999526  18.8265398   2.2810686  28.8109526  19.5765398   2.1910686
  28.8529526  18.1365398   2.6580686  35.7029526  29.0235398   0.8980686
  36.2929526  29.3335398   1.5840686  35.5969526  29.7745398   0.3140686
  25.6059526  34.1715398 -18.7659314  25.7029526  35.0735398 -18.4599314
  26.2869526  34.0705398 -19.4319314  31.4099526  23.7885398  -6.0499314
  30.8279526  24.5175398  -6.2629314  31.9719526  24.1265398  -5.3519314
  29.6369526  24.0475398 -15.1949314  28.9789526  24.5585398 -15.6669314
  29.5799526  23.1715398 -15.5759314  26.6439526   8.5295398  -2.2459314
  26.9419526   8.8195398  -3.1079314  25.7699526   8.9075398  -2.1539314
  31.6679526  34.6545398   0.2850686  32.4019526  34.2045398  -0.1339314
  30.8919526  34.3135398  -0.1609314  29.0609526  38.2015398 -15.1929314
  28.5819526  39.0235398 -15.0969314  29.3829526  38.0065398 -14.3129314
  26.8679526  32.4685398  -5.9229314  27.3679526  32.6115398  -6.7269314
  27.4699526  31.9975398  -5.3469314  23.3269526  11.0635398 -12.4469314
  23.5879526  10.1875398 -12.7299314  24.1469526  11.4905398 -12.2009314
  24.9449526  12.1195398 -10.6599314  25.1119526  13.0495398 -10.5039314
  24.7849526  11.7545398  -9.7899314  27.4189526  32.5785398 -16.6589314
  26.6949526  33.0675398 -17.0479314  27.3399526  32.7405398 -15.7189314
  28.7889526   8.4825398  -0.0769314  29.4009526   8.2685398  -0.7819314
  28.0459526   8.8915398  -0.5209314  34.2389526  29.8855398 -11.3569314
  34.1069526  30.4695398 -10.6099314  33.4559526  29.3355398 -11.3739314
  28.2039526  10.5815398 -14.7439314  28.2009526  11.1305398 -13.9589314
  28.6509526  11.1105398 -15.4049314  29.0979526  18.6105398  -3.2629314
  29.0729526  18.7895398  -4.2039314  29.9779526  18.2655398  -3.1079314
  23.6989526  26.5615398  -6.1279314  23.8189526  25.9715398  -6.8719314
  24.5369526  27.0145398  -6.0439314  34.9539526  25.9025398 -10.1219314
  34.8369526  25.7685398  -9.1819314  35.3979526  26.7485398 -10.1899314
   8.1229526  34.0745398  -5.5119314   7.2989526  33.7105398  -5.1899314
   8.3209526  33.5625398  -6.2959314   9.0239526  38.1585398  -0.8409314
   9.3369526  37.2545398  -0.8279314   8.6009526  38.2535398  -1.6949314
   9.1699526  36.8045398 -15.9749314   8.7379526  37.2455398 -16.7059314
   9.5569526  37.5145398 -15.4619314  24.5489526  28.0855398 -12.5499314
  23.6609526  27.7405398 -12.4559314  24.8109526  27.8345398 -13.4359314
  32.5919526  33.8255398   9.3030686  33.4399526  33.3865398   9.2270686
  32.1339526  33.6035398   8.4920686  33.7649526  26.0345398  -5.9239314
  33.3689526  26.2545398  -5.0799314  33.9019526  25.0875398  -5.8839314
  27.0219526  32.0175398 -14.0309314  26.5489526  31.1855398 -14.0139314
  27.9359526  31.7765398 -13.8799314  30.1339526  30.0965398  -5.9919314
  29.6589526  30.0805398  -6.8229314  31.0419526  29.9105398  -6.2309314
  28.6159526  35.4945398 -15.5489314  28.9229526  35.1735398 -16.3969314
  28.8909526  36.4115398 -15.5259314  29.6559526  31.6535398 -13.2339314
  29.6039526  30.8695398 -12.6869314  30.5739526  31.7005398 -13.5009314
  32.3189526  11.7175398  -7.0729314  31.9459526  11.1105398  -7.7119314
  33.1749526  11.9495398  -7.4329314  31.2019526  30.2965398 -15.7479314
  31.8469526  30.9195398 -15.4139314  31.5269526  30.0555398 -16.6149314
  32.4129526  24.9905398 -15.7529314  32.5199526  24.3345398 -16.4419314
  31.5789526  24.7685398 -15.3379314  32.7629526  29.3605398   3.7670686
  33.0279526  30.1635398   3.3190686  32.1179526  28.9615398   3.1840686
  35.1619526  23.5135398  -5.3579314  35.4179526  22.6245398  -5.6019314
  35.7959526  24.0765398  -5.8039314  28.5869526  26.1475398 -10.4919314
  27.7769526  26.4355398 -10.0709314  28.2969526  25.6405398 -11.2499314
  28.3989526  29.7685398  -8.5759314  27.4619526  29.8515398  -8.3989314
  28.4459526  29.3925398  -9.4549314  27.0309526  34.4335398   8.8970686
  26.1449526  34.7895398   8.8340686  27.4719526  34.7455398   8.1070686
  29.8579526  27.7825398  -2.1039314  29.3909526  28.5335398  -2.4719314
  30.5159526  28.1695398  -1.5259314  26.8029526  30.0105398 -11.8919314
  26.2079526  29.3425398 -12.2329314  27.6009526  29.5305398 -11.6729314
  30.7939526  26.2185398  -8.9699314  31.2429526  25.4045398  -9.1969314
  30.0429526  26.2505398  -9.5629314  34.5609526  34.3065398 -12.9759314
  34.8479526  33.4035398 -12.8459314  34.4859526  34.4005398 -13.9259314
  34.2439526  33.6935398  -0.6219314  34.3209526  33.0615398  -1.3359314
  35.0329526  34.2305398  -0.6899314  36.0879526  23.7205398  -2.0989314
  35.7579526  23.5145398  -1.2249314  35.6479526  23.0955398  -2.6749314
  32.6059526  10.6115398 -17.2089314  31.7869526  11.1045398 -17.2539314
  32.3689526   9.7895398 -16.7799314  34.9279526  24.9485398 -14.5219314
  34.2549526  24.9155398 -15.2019314  35.3169526  25.8195398 -14.6109314
  25.2519526  19.9185398  -1.3519314  25.2029526  20.1595398  -0.4269314
  26.1179526  20.2155398  -1.6309314  31.7179526  38.1835398 -16.2179314
  30.7709526  38.0705398 -16.1419314  32.0719526  37.7745398 -15.4279314
  31.2449526  36.9395398 -10.8119314  32.0769526  36.4665398 -10.7969314
  30.6139526  36.3265398 -10.4349314  34.7199526  36.8135398 -11.8969314
  34.6569526  35.8615398 -11.9779314  34.6449526  36.9785398 -10.9569314
  33.8079526  31.7075398  -2.3659314  34.1369526  32.0005398  -3.2159314
  33.5309526  30.8035398  -2.5139314  35.7329526  31.8875398 -17.3509314
  36.6369526  32.1925398 -17.2829314  35.3199526  32.4945398 -17.9649314
  25.1919526  37.8045398  -5.6339314  25.9149526  38.4275398  -5.5659314
  25.6109526  36.9735398  -5.8559314  36.8019526  35.5055398  -1.3309314
  36.6409526  35.9695398  -2.1529314  36.3539526  36.0295398  -0.6679314
  32.3929526  34.4805398  -7.7099314  32.1419526  34.0675398  -8.5359314
  31.7669526  35.1965398  -7.5999314  22.5509526  31.9325398 -16.4469314
  23.0339526  31.7505398 -17.2529314  22.4559526  31.0775398 -16.0269314
  20.6009526  36.3895398  -4.1199314  21.5369526  36.3205398  -3.9329314
  20.3539526  35.5205398  -4.4359314  32.2569526  33.6295398 -17.6719314
  31.3459526  33.3385398 -17.6559314  32.4779526  33.6755398 -18.6019314
  28.2439526  35.6365398 -12.9349314  28.5089526  35.4095398 -13.8259314
  28.6259526  36.5005398 -12.7829314  23.1369526  13.0345398  -3.7119314
  23.1709526  12.9805398  -2.7569314  22.5429526  13.7645398  -3.8889314
   9.9699526  35.9335398  -7.2159314   9.1139526  35.5085398  -7.2679314
  10.3579526  35.8005398  -8.0799314  35.7819526  27.6715398 -15.6209314
  36.6499526  27.2935398 -15.7659314  35.2519526  27.3385398 -16.3449314
  34.4099526  27.3605398 -17.9409314  34.9029526  27.6455398 -18.7109314
  34.4369526  26.4045398 -17.9789314   7.2609526  34.3425398 -15.8409314
   7.6929526  33.8005398 -16.5019314   7.9339526  34.9635398 -15.5629314
  28.9969526  28.7355398 -11.1969314  28.8819526  27.7915398 -11.0939314
  29.5019526  28.8295398 -12.0039314  27.9109526  34.2525398  -7.9369314
  27.6939526  34.4155398  -8.8549314  27.8859526  35.1165398  -7.5269314
  34.4469526   9.6505398 -13.2159314  34.7209526  10.1335398 -13.9959314
  35.1039526   8.9615398 -13.1169314  25.5829526  29.3635398  -8.1429314
  25.3799526  28.7335398  -8.8339314  24.9609526  30.0775398  -8.2779314
  34.6829526  37.3935398  -9.0449314  34.5419526  37.8415398  -8.2109314
  35.5919526  37.0975398  -9.0089314  16.9879526  36.7945398  -1.9149314
  17.6379526  36.0935398  -1.9619314  16.1509526  36.3575398  -2.0729314
  36.5949526  18.0795398 -15.5439314  36.3269526  17.9115398 -16.4469314
  37.4289526  17.6195398 -15.4509314  32.0299526  37.0225398  -6.5889314
  32.7579526  36.5365398  -6.2019314  32.4399526  37.7825398  -7.0009314
  33.3509526  29.0465398  -2.9499314  33.0499526  28.2065398  -3.2959314
  34.2419526  28.8745398  -2.6449314   8.0109526  38.4295398  -9.5349314
   8.5089526  37.8685398 -10.1309314   7.1679526  38.5535398  -9.9709314
   7.2189526   8.7495398 -13.3389314   7.2239526   8.6775398 -14.2939314
   7.7639526   8.0215398 -13.0409314  27.1959526  34.7845398 -10.5259314
  27.4729526  34.8395398 -11.4399314  26.9689526  35.6835398 -10.2889314
  30.7279526  37.6545398   7.8910686  30.9529526  37.1265398   8.6570686
  30.8049526  38.5595398   8.1930686  24.8929526   9.9685398 -17.4679314
  24.9079526   9.7785398 -16.5299314  25.0859526   9.1285398 -17.8859314
  28.3749526  29.9115398 -16.2799314  29.2809526  30.0725398 -16.0169314
  28.0189526  30.7815398 -16.4569314  31.9239526  26.6055398  -3.9529314
  32.2079526  25.7455398  -3.6449314  31.3529526  26.9325398  -3.2579314
  33.0299526  31.5475398  -9.3089314  32.1309526  31.3695398  -9.0339314
  32.9679526  32.3495398  -9.8279314   7.6409526  31.5035398 -11.0969314
   7.2759526  31.9085398 -11.8829314   6.9469526  31.5815398 -10.4419314
  26.1839526  33.7265398  -1.8519314  25.9349526  33.9915398  -0.9669314
  25.6089526  32.9875398  -2.0519314  31.7789526  34.9665398   4.5060686
  32.5509526  34.8785398   3.9470686  31.1109526  34.4285398   4.0800686
  26.8789526  35.7835398   3.8100686  27.6289526  35.6135398   3.2400686
  26.6929526  36.7155398   3.6890686  33.1689526  37.1265398 -14.1559314
  33.6079526  37.4165398 -13.3559314  33.6209526  36.3175398 -14.3969314
  29.0889526  36.0175398 -18.4649314  30.0139526  36.0825398 -18.7019314
  28.8179526  35.1595398 -18.7919314  24.7029526  29.2155398 -16.2589314
  24.5049526  28.3645398 -16.6509314  24.8629526  29.7915398 -17.0059314
  35.7929526  31.7065398   0.8260686  36.6469526  32.1075398   0.6670686
  35.1719526  32.2765398   0.3710686  36.0159526  27.8255398   9.6300686
  35.5839526  27.5005398   8.8400686  36.8349526  27.3335398   9.6760686
  36.4229526  28.5775398  -9.8719314  37.2289526  28.9785398 -10.1979314
  35.8029526  28.6655398 -10.5959314  36.8289526   9.7205398   3.2440686
  37.0619526   9.0685398   2.5830686  35.8869526   9.6055398   3.3730686
  36.1899526  34.9025398   6.5030686  35.6139526  34.9565398   7.2650686
  35.6819526  34.4175398   5.8520686  34.5189526  33.0995398   5.0810686
  33.7039526  33.0115398   4.5880686  34.4579526  32.4335398   5.7660686
  33.5419526  26.7135398   4.4970686  33.6879526  27.5445398   4.0460686
  32.6069526  26.5395398   4.3860686  35.1569526  23.4795398   0.7080686
  35.1639526  24.4145398   0.5000686  34.2789526  23.3165398   1.0510686
  36.9959526  36.5035398   2.3830686  36.4659526  36.8525398   3.1000686
  37.1319526  35.5835398   2.6100686  34.6459526  31.7715398   8.9720686
  35.2849526  32.2715398   9.4790686  35.1489526  31.4075398   8.2440686
  33.2069526   9.1475398   7.0560686  32.9769526   8.5585398   6.3380686
  33.9999526   8.7675398   7.4340686  10.8859526  11.1105398 -17.9469314
  10.2489526  11.5685398 -18.4959314  10.3589526  10.5245398 -17.4049314
  36.1679526  30.4805398   7.0110686  36.8829526  29.9765398   7.4000686
  36.5589526  30.8985398   6.2440686  33.5479526  30.5735398   6.3420686
  34.3899526  30.1565398   6.5250686  33.2259526  30.1285398   5.5570686
  31.3599526  37.6855398   5.1800686  31.3769526  37.4195398   6.0990686
  31.5599526  36.8855398   4.6950686  27.8279526  12.3725398   0.7640686
  27.9529526  12.4225398  -0.1829314  28.6989526  12.5235398   1.1300686
  36.1099526  37.2835398   4.8500686  36.9519526  37.6345398   5.1420686
  35.9359526  36.5525398   5.4430686  33.2479526  34.8745398 -15.5739314
  32.7569526  35.6835398 -15.4309314  32.8999526  34.5255398 -16.3939314
  24.1299526  36.8825398   5.3350686  24.6709526  36.9765398   6.1190686
  24.2649526  35.9765398   5.0580686  30.7099526  33.4235398   2.5930686
  29.9419526  33.0695398   2.1440686  31.2399526  33.8085398   1.8950686
  28.3429526  31.9875398   1.3050686  27.6079526  31.5525398   0.8740686
  27.9459526  32.4635398   2.0340686  10.2629526  38.1685398   4.3820686
   9.9849526  37.9705398   3.4880686  10.6989526  39.0185398   4.3160686
  31.5119526  17.8865398   0.6330686  32.3429526  18.1015398   1.0570686
  30.8439526  18.2275398   1.2280686   9.7939526  29.6315398 -18.9479314
   8.9529526  30.0895398 -18.9389314   9.9799526  29.4915398 -19.8769314
  25.6639526  35.0435398   0.4960686  26.4869526  35.4765398   0.7220686
  25.0249526  35.4085398   1.1070686  31.0479526  10.1375398   3.8790686
  30.1739526  10.4165398   4.1540686  31.0909526   9.2115398   4.1180686
  30.6829526  28.9165398 -13.3799314  31.5449526  28.5175398 -13.2609314
  30.7139526  29.3005398 -14.2559314  28.1089526  30.4265398  -2.1369314
  27.7309526  30.5315398  -1.2629314  28.5469526  31.2595398  -2.3109314
  36.4479526  14.9365398   2.2590686  36.0589526  14.6415398   1.4360686
  36.1159526  14.3235398   2.9150686  29.4059526   9.0735398 -19.4629314
  29.9389526   8.7965398 -18.7179314  30.0419526   9.2875398 -20.1459314
  23.1179526  37.7305398  -0.8929314  22.1809526  37.6435398  -1.0699314
  23.2259526  37.3955398  -0.0029314   7.9589526  14.6875398 -18.5779314
   8.2879526  15.1415398 -19.3539314   8.7029526  14.6685398 -17.9769314
  20.2039526  37.7175398  -1.3789314  20.5109526  37.1285398  -2.0679314
  19.4349526  38.1455398  -1.7549314  28.3779526  13.7335398  40.4480686
  27.6309526  13.4245398  40.9610686  28.0099526  14.3965398  39.8640686
  28.2149526   9.6195398  32.2520686  28.0549526   8.7705398  31.8400686
  28.7249526  10.1085398  31.6060686  36.3979526  27.4305398  25.7190686
  36.7379526  28.0035398  26.4070686  36.9879526  27.5685398  24.9780686
   9.6229526  15.6335398  39.3640686  10.3639526  16.0455398  39.8100686
   9.9529526  15.4305398  38.4890686  20.0209526  34.0225398  24.7150686
  20.9539526  33.8305398  24.6260686  19.6139526  33.5915398  23.9640686
  25.5219526  13.3275398  35.5630686  25.2049526  12.9845398  36.3980686
  25.4619526  12.5865398  34.9600686  35.8899526  18.4095398  26.2900686
  34.9509526  18.4705398  26.1160686  35.9469526  18.0665398  27.1820686
  16.7449526  32.4735398  40.7030686  16.1379526  33.0645398  40.2580686
  17.6129526  32.8175398  40.4920686  11.5219526  37.2565398  36.7510686
  11.9879526  36.5795398  36.2600686  10.8739526  37.5975398  36.1340686
  24.0679526  22.8515398  38.9020686  24.9099526  22.4535398  39.1230686
  24.2309526  23.3165398  38.0810686  19.3669526  17.5465398  37.4770686
  18.9659526  18.2975398  37.0410686  20.0759526  17.9225398  37.9990686
  14.2979526  16.6735398  40.3690686  14.4499526  17.2125398  41.1450686
  15.1549526  16.6115398  39.9480686  17.4999526  34.3545398  37.3120686
  17.4919526  34.7535398  36.4420686  16.7059526  34.6835398  37.7340686
  30.7689526  27.7215398  36.1400686  30.0349526  27.4165398  36.6720686
  31.1649526  28.4235398  36.6570686  13.2879526  37.2565398  17.9090686
  12.7129526  37.7925398  18.4540686  14.0289526  37.8275398  17.7060686
  12.9679526  19.6045398  38.8700686  13.7749526  19.6795398  39.3780686
  12.2859526  19.4465398  39.5230686  25.3409526  19.2835398  38.1140686
  25.0299526  19.3435398  37.2110686  26.2889526  19.3975398  38.0500686
  23.8889526  17.3075398  32.4300686  23.2159526  16.7335398  32.0640686
  24.4739526  16.7185398  32.9060686  16.3119526  38.4285398  30.0710686
  16.2109526  37.7895398  29.3660686  16.8629526  39.1155398  29.6950686
  12.9879526  34.6435398  26.3010686  12.0669526  34.8715398  26.1760686
  13.3459526  34.5975398  25.4150686  10.6369526  37.6655398  24.9050686
  10.5429526  37.2015398  24.0730686  11.1679526  38.4335398  24.6930686
  21.0819526  18.4895398  39.6130686  21.8089526  17.9295398  39.8850686
  21.4439526  19.0245398  38.9060686  22.0969526  15.5875398  38.5650686
  22.3219526  15.5125398  39.4920686  21.2399526  15.1675398  38.4910686
  36.1609526  10.8385398  24.0970686  36.2799526  11.1935398  24.9780686
  37.0499526  10.6975398  23.7720686   8.2899526  26.2825398  39.9660686
   8.9949526  26.5685398  40.5460686   8.7369526  25.8405398  39.2450686
  22.8009526  20.5335398  38.5420686  23.6379526  20.0735398  38.6150686
  23.0029526  21.4375398  38.7840686  10.9459526  36.7375398  16.6270686
  10.6229526  37.5925398  16.3420686  11.8299526  36.9095398  16.9490686
   9.2129526  30.6015398  28.3770686   9.9319526  30.2795398  27.8350686
   9.3969526  31.5335398  28.4920686  32.8659526  24.0475398  26.1120686
  33.6849526  23.9225398  25.6330686  32.9209526  23.4345398  26.8450686
  21.8309526  26.8445398  39.3590686  22.1139526  27.7195398  39.0900686
  22.3509526  26.6535398  40.1390686  25.8959526  27.1155398  40.0590686
  26.2639526  26.2335398  40.0080686  26.5879526  27.6845398  39.7220686
  35.8919526  15.2225398  25.6340686  35.6849526  14.8105398  24.7960686
  35.0679526  15.6215398  25.9150686  23.8919526  29.0375398  26.4860686
  24.6309526  28.4435398  26.3550686  23.8099526  29.5065398  25.6550686
  24.9119526  19.1415398  35.2310686  24.1409526  18.6785398  34.9030686
  25.6489526  18.7255398  34.7850686  34.2429526  21.5575398  27.0470686
  34.5909526  20.9715398  27.7190686  33.5609526  21.0455398  26.6120686
  15.5959526  38.0205398  15.2370686  16.3499526  38.2865398  14.7100686
  15.7519526  38.4165398  16.0940686  11.1279526  35.7265398  20.4700686
  12.0629526  35.5185398  20.4720686  11.0899526  36.6575398  20.2520686
  18.7349526  16.5975398  34.1240686  19.0099526  15.9645398  34.7880686
  19.0209526  17.4435398  34.4680686  28.5899526  29.3615398  32.1800686
  28.6199526  30.3155398  32.1060686  28.3069526  29.0635398  31.3160686
  23.2889526  21.2545398  34.8440686  24.0419526  20.8515398  35.2760686
  22.5979526  20.5935398  34.9000686  14.9699526  34.4985398  34.2280686
  15.6189526  34.7005398  33.5540686  14.1629526  34.3315398  33.7410686
  35.9209526  15.7425398  12.8050686  35.9599526  15.4485398  13.7150686
  36.6299526  15.2675398  12.3700686  19.9219526  14.5665398  36.3730686
  19.3119526  15.2705398  36.5910686  19.3799526  13.9025398  35.9470686
  29.1639526  17.8575398  40.0010686  30.0499526  17.4975398  39.9480686
  28.5899526  17.1025398  39.8760686  22.9859526  27.8775398  35.3830686
  22.6779526  27.3085398  36.0880686  23.9399526  27.8605398  35.4600686
  21.7699526  37.7095398  37.2180686  22.4629526  38.2425398  36.8270686
  21.4279526  38.2475398  37.9320686  19.1699526  10.7585398  36.1720686
  18.9849526  10.8125398  37.1090686  18.7649526  11.5425398  35.8010686
  10.5629526  18.0735398  37.6640686  10.7989526  17.1875398  37.3900686
  11.1879526  18.2855398  38.3570686  27.2059526  12.3075398  25.5440686
  27.6979526  12.9715398  25.0610686  26.3539526  12.2765398  25.1090686
  16.2399526  38.1595398  33.0210686  17.0249526  38.7045398  33.0710686
  16.2579526  37.7925398  32.1370686  12.7859526  15.0315398  38.4820686
  13.3629526  15.2545398  37.7520686  13.3199526  15.1775398  39.2630686
  22.6469526  34.0205398  36.8030686  21.9119526  33.4675398  36.5390686
  23.1799526  34.1045398  36.0120686  14.2449526  15.6105398  36.0580686
  13.7639526  15.4965398  35.2390686  14.3639526  16.5565398  36.1370686
  21.4009526  19.2905398  35.5170686  20.5629526  19.1565398  35.0750686
  21.6999526  18.4085398  35.7370686  31.8579526  14.5405398  27.6630686
  30.9189526  14.5005398  27.4810686  32.2719526  14.2115398  26.8650686
   8.8649526   9.0965398  39.4530686   9.6649526   9.5425398  39.7310686
   8.1979526   9.7835398  39.4450686  10.1289526  36.4265398  39.0870686
  10.3559526  36.2325398  38.1770686   9.9949526  37.3735398  39.1040686
  15.9129526  27.7495398  39.3900686  16.1499526  27.2355398  40.1620686
  15.3179526  28.4215398  39.7220686  17.9019526  12.9805398  35.2230686
  17.0029526  13.0435398  35.5460686  17.8119526  12.9345398  34.2710686
  15.2489526  19.8785398  40.0340686  16.1969526  20.0085398  40.0420686
  15.0799526  19.2925398  40.7720686  13.0489526  10.9565398  40.1690686
  12.4929526  10.8845398  40.9440686  12.5649526  10.4985398  39.4820686
  36.0239526   8.3755398  37.8850686  36.3939526   9.1195398  38.3600686
  36.5489526   8.3145398  37.0870686  25.9169526  12.0015398  32.8670686
  25.9489526  11.0875398  33.1510686  26.4269526  12.0185398  32.0570686
   7.9679526  37.6035398  11.7340686   8.2679526  38.1155398  10.9830686
   8.1279526  36.6935398  11.4840686  22.3409526  16.7495398  35.8500686
  21.6269526  16.1165398  35.9210686  22.8119526  16.6745398  36.6800686
   8.7069526  18.1315398  35.7230686   9.4159526  18.0075398  36.3540686
   9.1429526  18.4385398  34.9290686  31.1169526  27.8505398  31.9270686
  31.3749526  26.9665398  32.1890686  30.2619526  27.9825398  32.3380686
  12.2049526  12.4765398  37.3900686  11.2769526  12.6115398  37.1990686
  12.4389526  13.2005398  37.9700686  28.6319526  10.7495398  34.8230686
  28.2849526  10.5865398  33.9460686  28.5329526   9.9145398  35.2800686
  29.3829526  26.2815398  34.3250686  29.2729526  25.4965398  34.8620686
  29.8059526  26.9125398  34.9060686  16.7329526  36.2975398  35.4890686
  16.5469526  36.0475398  34.5840686  17.4799526  36.8925398  35.4250686
  10.6469526  15.6615398  36.5610686  11.4469526  15.1425398  36.6450686
  10.5009526  15.7255398  35.6170686   8.0809526  22.6505398  40.1560686
   8.6289526  23.4145398  39.9740686   8.0389526  22.6075398  41.1110686
  18.4359526  21.6645398  39.4010686  17.7959526  22.2115398  38.9460686
  18.9939526  21.3175398  38.7050686  35.5229526   9.7875398  28.2890686
  35.4659526   8.8635398  28.5330686  35.4689526  10.2585398  29.1210686
  24.0529526  25.0845398  33.1470686  23.8969526  26.0075398  33.3480686
  24.9529526  25.0585398  32.8230686   7.9649526  11.8885398  34.4770686
   7.6459526  11.0115398  34.2660686   8.7279526  12.0095398  33.9110686
  23.0009526  36.1155398  31.4470686  22.5509526  35.4175398  30.9710686
  22.3879526  36.3695398  32.1360686  22.6479526  12.6595398  36.6320686
  21.9529526  13.3175398  36.6430686  22.8809526  12.5715398  35.7080686
  24.7269526  38.5445398  33.1680686  24.5179526  37.8445398  32.5500686
  24.3979526  38.2275398  34.0090686  16.4679526  16.5545398  38.7740686
  15.8919526  16.6475398  38.0150686  17.2769526  16.9965398  38.5170686
  25.5189526  37.8665398  38.8460686  25.0329526  37.0485398  38.7430686
  25.8199526  37.8545398  39.7550686  16.8119526  36.5405398  19.1330686
  16.5119526  36.5325398  18.2250686  16.2369526  37.1685398  19.5700686
  35.1429526  34.3605398  22.7220686  35.3389526  35.2015398  23.1350686
  34.1889526  34.3485398  22.6420686  12.0899526  37.9905398  28.7610686
  12.2239526  38.1395398  29.6970686  11.7049526  38.8065398  28.4410686
  10.4169526  33.0755398  29.8850686  11.2959526  32.6995398  29.8400686
  10.5069526  33.9435398  29.4920686  24.6979526  29.9425398  31.9670686
  24.2029526  30.6695398  32.3450686  24.2949526  29.1585398  32.3400686
  19.9329526  33.4435398  32.4200686  19.5779526  32.7245398  31.8970686
  20.4169526  33.9795398  31.7920686  11.7679526  30.9605398  27.1020686
  12.3669526  31.7065398  27.1330686  12.3009526  30.2145398  27.3780686
  37.0989526  30.4125398  40.3730686  36.4039526  30.4905398  41.0270686
  37.0339526  29.5115398  40.0590686  12.9419526  35.8585398  40.4560686
  12.3459526  36.0215398  39.7240686  12.4519526  35.2795398  41.0400686
  22.5349526  33.5715398  24.5310686  23.3359526  33.6815398  24.0190686
  22.1709526  32.7385398  24.2310686  18.2539526  37.8335398  24.6160686
  19.0499526  37.4925398  25.0240686  17.9189526  38.4765398  25.2420686
  35.2669526  10.8925398  30.6680686  34.4649526  10.6795398  31.1460686
  35.5189526  11.7565398  30.9930686  26.3109526  37.3725398  19.8240686
  25.7719526  37.7605398  20.5130686  25.6879526  37.1325398  19.1380686
  22.5269526  31.7245398  30.5260686  23.0959526  31.5825398  29.7700686
  22.0909526  30.8835398  30.6600686  19.5739526  34.4905398  39.7510686
  19.2489526  34.4465398  40.6500686  18.7909526  34.6325398  39.2190686
  18.3599526  34.5655398  27.0430686  18.9839526  34.4955398  26.3210686
  18.3599526  33.6965398  27.4460686  35.9449526  32.3835398  20.9790686
  35.2229526  31.7605398  20.8890686  35.6359526  33.0175398  21.6260686
  31.5659526  29.2985398  29.5410686  32.4099526  29.5625398  29.1740686
  31.7919526  28.7065398  30.2590686  36.9329526  35.3665398  19.4660686
  36.3269526  34.6685398  19.2130686  37.5219526  34.9545398  20.0980686
  15.0559526  31.6715398  35.1170686  15.7209526  31.1715398  34.6440686
  15.0449526  32.5255398  34.6830686  35.9089526  37.4335398  30.0650686
  36.4399526  37.2685398  30.8440686  35.0069526  37.3095398  30.3590686
  13.8589526  36.9435398  24.7500686  14.4499526  37.6765398  24.9240686
  13.0539526  37.1685398  25.2160686  16.8599526  31.0715398  37.1970686
  16.3729526  31.1095398  36.3730686  16.8229526  31.9645398  37.5390686
   8.5439526  38.1815398  26.4100686   8.5229526  39.1325398  26.5210686
   9.3749526  38.0105398  25.9670686  13.2229526  31.9765398  30.6170686
  13.4169526  31.7595398  29.7050686  14.0499526  32.3125398  30.9650686
  17.3009526  36.9045398  22.4790686  18.0979526  36.7665398  21.9670686
  17.6129526  37.0745398  23.3680686  24.4779526  30.8345398  37.9430686
  24.7289526  31.3435398  38.7140686  25.2109526  30.9415398  37.3360686
   8.7709526  36.9205398  18.0990686   9.4399526  36.4115398  17.6430686
   7.9859526  36.3745398  18.0610686  26.3999526  35.1475398  24.5490686
  26.7009526  35.3455398  25.4360686  26.4519526  34.1935398  24.4850686
  36.6989526  36.3385398  25.8400686  37.1949526  35.6045398  25.4760686
  37.3549526  37.0175398  25.9980686  11.0349526  35.3375398  28.6630686
  10.8529526  35.2905398  27.7250686  11.5429526  36.1425398  28.7680686
  14.2849526  30.9455398  38.6300686  13.6979526  30.8355398  37.8820686
  15.1639526  30.8705398  38.2570686  22.4299526  29.3235398  38.6510686
  21.7979526  29.9995398  38.4090686  23.2699526  29.6545398  38.3310686
  26.9939526   8.7615398  36.8320686  26.3969526   8.5235398  37.5410686
  27.3859526   9.5875398  37.1150686  33.4659526  31.6185398  32.6640686
  32.9969526  32.3115398  32.2000686  34.3319526  31.6005398  32.2570686
  15.7859526  13.4065398  36.7360686  15.6559526  13.3055398  37.6790686
  15.0569526  13.9575398  36.4500686  12.1449526   9.4705398  38.1340686
  12.3269526  10.2795398  37.6570686  12.0139526   8.8135398  37.4500686
  19.7059526  30.5195398  35.0440686  19.8029526  30.2405398  35.9550686
  20.2299526  29.8935398  34.5440686  16.3659526  34.9335398  25.2200686
  16.8209526  34.7275398  26.0360686  16.1989526  35.8755398  25.2690686
  23.3459526  31.9195398  32.9750686  22.9949526  32.0235398  32.0910686
  22.5859526  32.0265398  33.5490686  23.5009526  36.4015398  26.5570686
  23.8829526  36.9235398  27.2610686  24.0719526  36.5585398  25.8040686
  21.2319526  32.6295398  34.6010686  20.7209526  31.8485398  34.8110686
  20.6719526  33.1305398  34.0080686  20.5729526  27.9505398  34.0410686
  20.6919526  27.1415398  33.5430686  21.2859526  27.9475398  34.6790686
  11.0099526  32.2035398  38.4210686  10.8649526  31.2675398  38.2810686
  11.6969526  32.2435398  39.0860686  30.4309526  33.8385398  36.7860686
  30.9639526  34.2555398  36.1080686  29.7339526  34.4695398  36.9640686
  28.1899526  35.6675398  36.7950686  27.8419526  35.8095398  35.9150686
  28.4399526  36.5405398  37.0980686  21.7879526  34.2545398  30.1600686
  21.9179526  34.2645398  29.2110686  21.7269526  33.3265398  30.3840686
  18.7479526  37.9585398  35.6400686  18.6099526  38.7465398  36.1660686
  19.6839526  37.7755398  35.7230686  12.7169526  34.0025398  32.5840686
  13.2249526  34.3975398  31.8750686  12.3569526  33.2015398  32.2040686
  15.5499526  11.0245398  35.4460686  15.1819526  10.2825398  35.9250686
  15.5589526  11.7395398  36.0820686  10.6599526  29.4435398  38.4480686
   9.7859526  29.3305398  38.0750686  11.2539526  29.1315398  37.7670686
  31.6109526  25.4715398  32.9060686  32.2109526  24.7775398  33.1790686
  30.7829526  25.2575398  33.3350686  18.7879526  28.5495398  40.2900686
  17.8999526  28.3695398  39.9810686  19.0989526  27.7115398  40.6300686
  21.7839526  36.0715398  39.9710686  20.8859526  35.8315398  40.1980686
  21.6929526  36.6635398  39.2240686  21.6919526  37.2745398  34.0270686
  22.2389526  36.8335398  34.6780686  21.7389526  38.2005398  34.2620686
  15.1019526  34.0835398  39.6260686  14.4369526  34.4685398  40.1970686
  14.6589526  33.9665398  38.7860686  24.3259526  34.3105398  34.7470686
  25.0819526  34.2275398  34.1660686  23.7339526  33.6105398  34.4720686
  23.4729526  33.4985398  27.0400686  23.0709526  33.4495398  26.1730686
  23.7839526  34.4005398  27.1100686   6.9879526  34.1625398  33.4720686
   6.8749526  33.3665398  33.9910686   7.9279526  34.2025398  33.2950686
  33.8609526  12.1355398  33.2440686  33.8629526  11.3075398  33.7240686
  34.4449526  12.7045398  33.7440686  18.4279526  37.4225398  38.4150686
  17.4779526  37.4165398  38.2970686  18.7809526  37.2675398  37.5390686
   8.3659526  29.3915398  32.8430686   8.6159526  28.7235398  32.2050686
   9.0519526  30.0555398  32.7770686  14.5029526  34.6725398  30.5740686
  14.5149526  35.1195398  29.7280686  15.3319526  34.9175398  30.9860686
  17.9349526  10.6615398  38.6460686  17.0549526  10.4625398  38.3260686
  17.8109526  10.8805398  39.5690686  19.2509526  29.5645398  37.6890686
  18.4439526  30.0595398  37.5450686  19.5289526  29.8105398  38.5710686
  28.7359526  34.3285398  29.7650686  28.9739526  33.9595398  28.9150686
  28.2279526  33.6375398  30.1920686   8.9999526  34.5135398  36.9550686
   8.1199526  34.8515398  36.7930686   8.8999526  33.9375398  37.7130686
  33.5909526  31.8805398  14.4070686  34.3579526  31.7665398  13.8460686
  33.2429526  32.7385398  14.1660686  19.1969526  36.8075398  32.6690686
  19.9529526  36.8185398  33.2560686  19.0039526  37.7315398  32.5090686
  13.9949526  38.1295398  34.9190686  14.4949526  37.5955398  35.5360686
  14.6269526  38.3705398  34.2420686  26.4309526  27.8695398  30.8540686
  26.1189526  27.5825398  29.9960686  25.6339526  28.0585398  31.3490686
  21.6249526  11.8275398  39.2540686  21.2619526  10.9585398  39.0780686
  22.1439526  12.0315398  38.4760686  24.1919526  24.1955398  36.4240686
  24.8649526  24.8755398  36.3820686  23.3839526  24.6695398  36.6190686
  15.3429526   9.7375398  38.6600686  14.6859526   9.8785398  39.3420686
  15.2789526   8.8035398  38.4560686  22.2219526  25.7315398  36.9130686
  22.3309526  26.1625398  37.7610686  21.6349526  24.9975398  37.0910686
  14.3689526  34.8815398  36.8120686  13.4439526  34.7555398  36.5990686
  14.8099526  34.8965398  35.9630686  14.2299526  36.0175398  28.2010686
  13.9189526  35.7465398  27.3370686  13.6309526  36.7165398  28.4630686
  32.1839526  11.4835398  35.9210686  31.8499526  11.1645398  35.0830686
  32.7269526  10.7675398  36.2510686  15.1229526  37.6385398  21.0540686
  15.7019526  37.3165398  21.7440686  14.6009526  38.3195398  21.4780686
  15.5129526  37.0575398  38.3140686  15.1869526  36.4735398  37.6290686
  15.1109526  36.7305398  39.1190686  17.8639526  14.6815398  40.4830686
  18.2109526  15.3595398  41.0620686  17.2439526  15.1425398  39.9170686
  37.0289526  21.4035398  30.6740686  36.3309526  22.0195398  30.4500686
  36.6389526  20.5405398  30.5350686  29.9149526  30.3165398  40.4190686
  30.1999526  29.6315398  41.0250686  30.4879526  30.2165398  39.6590686
  35.3109526  31.7935398  25.3850686  34.6539526  31.9235398  24.7020686
  36.1259526  31.6355398  24.9070686  26.6239526  25.7105398  37.1630686
  27.3819526  25.3435398  36.7080686  26.6279526  25.2825398  38.0190686
   7.5529526  31.3615398  23.7750686   7.3029526  30.4535398  23.6050686
   8.4499526  31.3065398  24.1040686  32.3869526  14.0875398  30.2560686
  33.2619526  13.7525398  30.0600686  32.0119526  14.2945398  29.4000686
  36.6229526   9.1705398  13.8930686  37.2859526   9.2335398  13.2060686
  36.2329526   8.3045398  13.7710686  25.1069526  15.4775398  37.7360686
  24.4159526  15.0315398  38.2250686  25.1899526  14.9755398  36.9250686
  33.8329526  12.0845398  28.3790686  33.5559526  12.5535398  27.5920686
  33.1369526  11.4475398  28.5370686  26.9859526  16.2535398  39.7510686
  26.5459526  15.9885398  38.9430686  26.3639526  16.0395398  40.4450686
  36.3079526  32.2365398  16.3550686  36.4559526  32.7895398  15.5880686
  36.5209526  31.3515398  16.0580686  31.2739526  12.9005398  39.7920686
  31.0099526  13.4925398  39.0880686  30.5249526  12.8885398  40.3890686
  34.1109526   9.0855398  33.8730686  33.2019526   8.8435398  33.6940686
  34.5489526   8.2545398  34.0570686  34.1449526  28.8215398  24.0500686
  33.2959526  28.5365398  23.7130686  34.5229526  28.0355398  24.4440686
  32.0659526   9.4995398  30.6300686  31.7629526   9.8675398  29.8000686
  31.5659526   9.9685398  31.2980686  29.6219526  32.3835398  26.7860686
  30.4099526  32.2965398  27.3220686  29.9489526  32.5375398  25.9000686
  33.4119526  15.9635398  34.4590686  33.3919526  15.2235398  35.0650686
  34.1949526  16.4555398  34.7070686  32.8279526  34.9845398  26.5170686
  32.6299526  34.0895398  26.2430686  31.9759526  35.3635398  26.7330686
  28.0689526  19.8215398  38.6210686  28.5749526  19.2095398  39.1550686
  28.5619526  19.8905398  37.8030686  34.7639526  15.7005398  39.0100686
  35.2829526  16.4745398  38.7900686  34.6039526  15.2705398  38.1700686
  24.1359526  18.2475398  40.6120686  24.0229526  19.1845398  40.7670686
  24.4499526  18.1895398  39.7090686  35.0849526  10.0145398  19.8130686
  34.7589526   9.2445398  20.2780686  34.6759526   9.9645398  18.9490686
  36.9569526  30.9555398  34.2360686  37.6099526  30.4815398  33.7220686
  36.2129526  31.0595398  33.6420686  30.0619526  38.2415398  17.1970686
  29.4079526  38.5785398  17.8090686  30.7339526  37.8495398  17.7560686
  37.1219526  17.8265398  17.8640686  36.1859526  17.7245398  18.0360686
  37.2619526  17.3815398  17.0290686  35.0839526  17.4055398  29.2300686
  35.9749526  17.2575398  29.5490686  34.5319526  16.8785398  29.8080686
  33.0249526  29.5695398  39.4530686  32.5199526  29.4885398  38.6450686
  33.5269526  30.3775398  39.3430686  23.9379526  38.1325398  21.1370686
  23.4109526  37.5465398  21.6800686  23.3689526  38.3555398  20.4010686
  29.1409526  36.3185398  31.8950686  29.3819526  35.7835398  31.1390686
  29.4979526  37.1855398  31.6990686  33.0949526  36.9215398  31.0940686
  32.4779526  36.3395398  30.6490686  32.7689526  37.8025398  30.9090686
  27.5569526  36.0685398  27.0190686  27.1049526  36.8785398  27.2570686
  27.0029526  35.3715398  27.3690686  34.7549526  26.3045398  30.9510686
  34.0999526  26.3915398  31.6440686  34.8829526  27.1965398  30.6280686
  34.2019526  36.3265398  24.8170686  33.7199526  35.8195398  25.4700686
  35.0999526  36.3515398  25.1470686  29.9369526  22.8545398  39.8030686
  30.1629526  23.7645398  39.9980686  29.4299526  22.9025398  38.9930686
  35.0789526  17.6835398  35.9360686  35.6699526  17.7345398  36.6870686
  34.5659526  18.4905398  35.9790686  36.4979526  28.9355398  23.0000686
  35.6059526  28.9435398  23.3470686  36.3859526  28.9215398  22.0500686
  25.6439526  27.3965398  35.1990686  25.8839526  26.7705398  35.8830686
  26.4429526  27.8985398  35.0420686  30.1829526  13.0515398  37.1340686
  30.8829526  12.6235398  36.6420686  29.5459526  13.3115398  36.4690686
  36.4929526  29.7735398  27.3200686  36.2089526  30.5855398  26.9000686
  37.3819526  29.9585398  27.6220686  37.0899526  11.7825398  19.2520686
  36.3779526  11.1575398  19.3890686  36.7139526  12.6305398  19.4860686
  35.4559526  13.9375398  29.8180686  35.8939526  14.4635398  29.1490686
  35.1499526  13.1605398  29.3500686  20.7959526   9.2785398  39.3110686
  19.8989526   9.1455398  39.6160686  21.3349526   9.1625398  40.0940686
  26.6419526  21.9255398  39.8370686  26.7109526  21.4035398  40.6370686
  27.0289526  21.3745398  39.1570686  36.4949526  18.2475398  11.7330686
  36.8729526  18.0875398  10.8690686  35.9779526  17.4625398  11.9180686
  30.9039526  25.2595398  40.2310686  30.8669526  25.8525398  40.9810686
  31.7449526  25.4495398  39.8150686   9.6929526  24.8555398  38.1220686
   9.4589526  24.5125398  37.2600686  10.6249526  24.6555398  38.2150686
  31.4739526  24.9215398  37.0370686  31.5889526  25.8075398  36.6950686
  31.1279526  25.0485398  37.9210686  36.2659526  18.8485398  33.0020686
  35.3739526  19.0585398  32.7250686  36.1839526  18.6325398  33.9310686
  34.6059526  20.1195398  29.3440686  34.6749526  19.1665398  29.2840686
  34.6949526  20.3085398  30.2780686  35.2089526  21.5465398  34.5010686
  35.8519526  21.1465398  35.0880686  34.5429526  21.9075398  35.0860686
   8.0659526  22.3935398  37.3130686   8.3679526  22.4805398  38.2170686
   8.8339526  22.0855398  36.8320686  31.2029526  10.2055398  38.6320686
  31.8709526   9.9005398  38.0180686  31.4959526  11.0795398  38.8900686
   7.7729526  12.9515398  37.0970686   7.9119526  12.8055398  36.1620686
   7.9669526  13.8795398  37.2270686  35.1209526  34.2405398  10.7180686
  34.7419526  34.8545398  10.0880686  35.8809526  34.7015398  11.0730686
  28.2839526  13.4705398  34.9250686  27.4399526  13.7345398  35.2900686
  28.3459526  12.5345398  35.1150686  33.6339526  14.0495398  36.4560686
  32.9109526  13.4365398  36.3230686  34.4129526  13.5645398  36.1830686
  35.8499526  36.6545398  13.5650686  35.9659526  35.7555398  13.8730686
  36.5679526  36.7925398  12.9480686  34.0989526  16.2245398  31.4270686
  34.2539526  16.0375398  32.3530686  33.2649526  15.7955398  31.2330686
  10.3249526  27.1685398  35.3080686   9.6999526  26.4445398  35.3320686
  11.1729526  26.7615398  35.4850686  12.2729526  23.7155398  39.2480686
  12.3399526  23.1165398  38.5050686  13.1809526  23.8875398  39.4990686
  30.1449526  35.2925398  26.4730686  29.2079526  35.2905398  26.6670686
  30.2679526  34.5525398  25.8780686  33.1729526  23.4465398  33.4290686
  33.9199526  23.0395398  32.9900686  33.2579526  23.1795398  34.3440686
  33.8019526  37.3645398  11.7410686  34.6219526  37.0135398  12.0880686
  33.4219526  37.8535398  12.4710686  31.3459526  32.0135398  28.8850686
  31.3659526  31.2275398  29.4320686  32.2389526  32.0945398  28.5490686
  34.4989526  36.5145398  38.8750686  33.9559526  37.0455398  39.4590686
  35.1589526  37.1235398  38.5430686  32.3349526  23.6065398  29.7560686
  31.7709526  23.8105398  30.5030686  32.1179526  24.2715398  29.1030686
  34.9789526  11.4095398  11.3060686  34.2289526  10.8365398  11.4670686
  34.6609526  12.2865398  11.5170686  24.6789526  14.4155398  32.3820686
  25.0169526  13.5215398  32.4320686  25.3299526  14.8905398  31.8650686
  25.7229526  12.2635398  38.2160686  26.5359526  11.7655398  38.1310686
  25.6759526  12.4905398  39.1450686  36.3079526  20.1805398  36.7980686
  36.4759526  19.6245398  37.5590686  36.6659526  21.0345398  37.0410686
  36.5039526  11.6365398  26.5890686  36.3269526  10.8555398  27.1140686
  35.9969526  12.3295398  27.0130686  33.2319526  20.8685398  38.1440686
  32.5229526  20.7035398  38.7650686  33.9929526  21.0585398  38.6920686
  24.9699526  16.0955398  34.6390686  24.8479526  15.1465398  34.6090686
  24.1059526  16.4415398  34.8650686  28.6539526  24.1535398  35.9370686
  29.3319526  23.9735398  36.5880686  28.4769526  23.3035398  35.5330686
  36.9399526  11.0645398  39.2250686  36.4019526  11.3945398  39.9440686
  36.8099526  11.6965398  38.5180686  35.7879526  13.4515398  34.4900686
  36.3189526  14.1355398  34.8990686  36.3609526  12.6855398  34.4650686
   9.6069526  12.2615398  39.5110686   9.4299526  13.2005398  39.5540686
   9.0949526  11.9535398  38.7630686  27.2259526  24.6905398  39.4950686
  27.0119526  23.7755398  39.3160686  27.6669526  24.6725398  40.3450686
  29.0169526  26.9295398  37.9410686  28.7759526  27.6885398  38.4720686
  28.2959526  26.3115398  38.0630686  27.7499526  29.1245398  39.0700686
  27.8969526  29.4035398  39.9730686  27.6549526  29.9405398  38.5780686
   7.2109526  15.6445398  35.5530686   8.0909526  15.7785398  35.1990686
   6.7679526  16.4825398  35.4180686  32.9679526  22.6895398  35.8990686
  33.0099526  22.0675398  36.6260686  32.4439526  23.4155398  36.2360686
  34.0589526  34.5935398  32.6920686  34.9809526  34.6845398  32.9360686
  33.8959526  35.3225398  32.0940686  28.4409526  32.0545398  37.6720686
  29.1419526  32.6085398  37.3280686  27.9099526  32.6435398  38.2070686
  31.2039526  12.1865398  31.6400686  31.6779526  12.9465398  31.3010686
  31.6319526  11.9895398  32.4730686   6.9639526  17.6985398  37.9670686
   7.5299526  17.9675398  37.2430686   7.5429526  17.2195398  38.5600686
  35.2779526  20.9875398  39.8660686  36.1279526  21.4265398  39.8620686
  35.2949526  20.4385398  40.6500686   9.5239526  37.9185398  31.8390686
   8.8569526  37.2335398  31.8210686   9.2339526  38.5535398  31.1840686
  35.7029526  29.0235398  30.8980686  36.2929526  29.3335398  31.5840686
  35.5969526  29.7745398  30.3140686  31.6679526  34.6545398  30.2850686
  32.4019526  34.2045398  29.8660686  30.8919526  34.3135398  29.8390686
  29.0609526  38.2015398  14.8070686  28.5819526  39.0235398  14.9030686
  29.3829526  38.0065398  15.6870686   8.1229526  34.0745398  24.4880686
   7.2989526  33.7105398  24.8100686   8.3209526  33.5625398  23.7040686
   9.0239526  38.1585398  29.1590686   9.3369526  37.2545398  29.1720686
   8.6009526  38.2535398  28.3050686   9.1699526  36.8045398  14.0250686
   8.7379526  37.2455398  13.2940686   9.5569526  37.5145398  14.5380686
  32.5919526  33.8255398  39.3030686  33.4399526  33.3865398  39.2270686
  32.1339526  33.6035398  38.4920686  33.7649526  26.0345398  24.0760686
  33.3689526  26.2545398  24.9200686  33.9019526  25.0875398  24.1160686
   9.8259526  31.7125398  32.2210686   9.9789526  32.0815398  31.3520686
   9.6369526  32.4705398  32.7740686  10.1429526  35.2385398  26.0890686
   9.5019526  34.7645398  25.5600686  10.2059526  36.0995398  25.6760686
   8.2979526  32.8495398  39.4930686   7.8419526  32.0595398  39.7820686
   9.2089526  32.5755398  39.3850686  32.7629526  29.3605398  33.7670686
  33.0279526  30.1635398  33.3190686  32.1179526  28.9615398  33.1840686
  27.0309526  34.4335398  38.8970686  26.1449526  34.7895398  38.8340686
  27.4719526  34.7455398  38.1070686  34.5609526  34.3065398  17.0240686
  34.8479526  33.4035398  17.1540686  34.4859526  34.4005398  16.0740686
  34.2439526  33.6935398  29.3780686  34.3209526  33.0615398  28.6640686
  35.0329526  34.2305398  29.3100686  36.0879526  23.7205398  27.9010686
  35.7579526  23.5145398  28.7750686  35.6479526  23.0955398  27.3250686
  24.1149526  31.1805398  28.1860686  23.9709526  30.4855398  27.5430686
  23.8659526  31.9845398  27.7310686  31.7179526  38.1835398  13.7820686
  30.7709526  38.0705398  13.8580686  32.0719526  37.7745398  14.5720686
  31.2449526  36.9395398  19.1880686  32.0769526  36.4665398  19.2030686
  30.6139526  36.3265398  19.5650686  34.7199526  36.8135398  18.1030686
  34.6569526  35.8615398  18.0220686  34.6449526  36.9785398  19.0430686
  33.8079526  31.7075398  27.6340686  34.1369526  32.0005398  26.7840686
  33.5309526  30.8035398  27.4860686  35.7329526  31.8875398  12.6490686
  36.6369526  32.1925398  12.7170686  35.3199526  32.4945398  12.0350686
  25.1919526  37.8045398  24.3660686  25.9149526  38.4275398  24.4340686
  25.6109526  36.9735398  24.1440686  36.8019526  35.5055398  28.6690686
  36.6409526  35.9695398  27.8470686  36.3539526  36.0295398  29.3320686
  32.3929526  34.4805398  22.2900686  32.1419526  34.0675398  21.4640686
  31.7669526  35.1965398  22.4000686  20.6009526  36.3895398  25.8800686
  21.5369526  36.3205398  26.0670686  20.3539526  35.5205398  25.5640686
  24.1439526  35.3315398  38.7220686  23.4829526  35.5795398  39.3680686
  23.6419526  34.9645398  37.9940686   9.9699526  35.9335398  22.7840686
   9.1139526  35.5085398  22.7320686  10.3579526  35.8005398  21.9200686
  34.6829526  37.3935398  20.9550686  34.5419526  37.8415398  21.7890686
  35.5919526  37.0975398  20.9910686  16.9879526  36.7945398  28.0850686
  17.6379526  36.0935398  28.0380686  16.1509526  36.3575398  27.9270686
   7.7129526  33.5555398  30.3430686   8.6409526  33.3385398  30.4300686
   7.6809526  34.1865398  29.6250686  19.3599526  24.8955398  39.2930686
  20.0409526  25.5675398  39.3230686  19.5439526  24.4025398  38.4930686
  32.0299526  37.0225398  23.4110686  32.7579526  36.5365398  23.7980686
  32.4399526  37.7825398  22.9990686  33.3509526  29.0465398  27.0500686
  33.0499526  28.2065398  26.7040686  34.2419526  28.8745398  27.3550686
   8.0109526  38.4295398  20.4650686   8.5089526  37.8685398  19.8690686
   7.1679526  38.5535398  20.0290686  30.7279526  37.6545398  37.8910686
  30.9529526  37.1265398  38.6570686  30.8049526  38.5595398  38.1930686
  14.9359526  13.1245398  39.3480686  15.3109526  13.2095398  40.2240686
  14.4529526  12.2985398  39.3720686  28.1819526  11.3175398  38.2350686
  28.7189526  10.7365398  38.7740686  28.7959526  11.9735398  37.9040686
  26.1839526  33.7265398  28.1480686  25.9349526  33.9915398  29.0330686
  25.6089526  32.9875398  27.9480686  31.7789526  34.9665398  34.5060686
  32.5509526  34.8785398  33.9470686  31.1109526  34.4285398  34.0800686
  26.8789526  35.7835398  33.8100686  27.6289526  35.6135398  33.2400686
  26.6929526  36.7155398  33.6890686  33.1689526  37.1265398  15.8440686
  33.6079526  37.4165398  16.6440686  33.6209526  36.3175398  15.6030686
  35.7929526  31.7065398  30.8260686  36.6469526  32.1075398  30.6670686
  35.1719526  32.2765398  30.3710686  26.2739526  30.8625398  29.8900686
  25.9659526  30.5225398  30.7300686  25.4859526  30.9175398  29.3500686
  36.0159526  27.8255398  39.6300686  35.5839526  27.5005398  38.8400686
  36.8349526  27.3335398  39.6760686  29.5429526  31.3025398  34.9040686
  30.3799526  31.7675398  34.9240686  29.0109526  31.7925398  34.2770686
  36.4229526  28.5775398  20.1280686  37.2289526  28.9785398  19.8020686
  35.8029526  28.6655398  19.4040686  36.8289526   9.7205398  33.2440686
  37.0619526   9.0685398  32.5830686  35.8869526   9.6055398  33.3730686
  21.7039526  32.7805398  39.3850686  20.8459526  33.2035398  39.4060686
  22.1789526  33.2345398  38.6890686   8.5739526  28.9835398  36.6380686
   9.0809526  28.3545398  36.1240686   7.9679526  29.3745398  36.0080686
  33.4909526  18.5995398  40.1870686  33.4709526  19.1505398  40.9690686
  33.3429526  19.2075398  39.4620686  36.1899526  34.9025398  36.5030686
  35.6139526  34.9565398  37.2650686  35.6819526  34.4175398  35.8520686
  34.5189526  33.0995398  35.0810686  33.7039526  33.0115398  34.5880686
  34.4579526  32.4335398  35.7660686  33.5419526  26.7135398  34.4970686
  33.6879526  27.5445398  34.0460686  32.6069526  26.5395398  34.3860686
  33.7179526  13.6395398  40.6730686  32.8939526  13.2425398  40.3910686
  33.7129526  14.5095398  40.2740686   9.9329526  34.1825398  33.6660686
  10.8589526  33.9675398  33.5510686   9.9379526  35.0385398  34.0950686
  30.9669526  30.2365398  37.6970686  31.6529526  30.7175398  37.2350686
  30.1829526  30.7755398  37.5890686  35.1569526  23.4795398  30.7080686
  35.1639526  24.4145398  30.5000686  34.2789526  23.3165398  31.0510686
  33.1539526  26.0085398  39.3880686  33.8439526  25.3785398  39.1830686
  33.5149526  26.8545398  39.1230686  36.9959526  36.5035398  32.3830686
  36.4659526  36.8525398  33.1000686  37.1319526  35.5835398  32.6100686
  34.6459526  31.7715398  38.9720686  35.2849526  32.2715398  39.4790686
  35.1489526  31.4075398  38.2440686  34.8999526  26.3885398  37.1550686
  34.4499526  26.7745398  36.4040686  34.9609526  25.4565398  36.9450686
  27.9129526  28.9095398  35.0630686  28.5319526  29.6365398  35.1280686
  27.8999526  28.6885398  34.1310686  33.2069526   9.1475398  37.0560686
  32.9769526   8.5585398  36.3380686  33.9999526   8.7675398  37.4340686
  31.1879526  20.7265398  39.9020686  30.7949526  21.5995398  39.8940686
  30.4509526  20.1335398  40.0520686  36.1679526  30.4805398  37.0110686
  36.8829526  29.9765398  37.4000686  36.5589526  30.8985398  36.2440686
  33.5479526  30.5735398  36.3420686  34.3899526  30.1565398  36.5250686
  33.2259526  30.1285398  35.5570686  31.3599526  37.6855398  35.1800686
  31.3769526  37.4195398  36.0990686  31.5599526  36.8855398  34.6950686
  26.4869526  31.2985398  35.7550686  26.5979526  30.5765398  35.1360686
  27.2019526  31.1905398  36.3810686  27.8279526  12.3725398  30.7640686
  27.9529526  12.4225398  29.8170686  28.6989526  12.5235398  31.1300686
  36.1099526  37.2835398  34.8500686  36.9519526  37.6345398  35.1420686
  35.9359526  36.5525398  35.4430686  23.9259526   9.6805398  37.6070686
  24.5659526   9.0655398  37.9670686  24.2129526  10.5375398  37.9220686
  33.2479526  34.8745398  14.4260686  32.7569526  35.6835398  14.5690686
  32.8999526  34.5255398  13.6060686  24.1299526  36.8825398  35.3350686
  24.6709526  36.9765398  36.1190686  24.2649526  35.9765398  35.0580686
  30.7099526  33.4235398  32.5930686  29.9419526  33.0695398  32.1440686
  31.2399526  33.8085398  31.8950686  28.3429526  31.9875398  31.3050686
  27.6079526  31.5525398  30.8740686  27.9459526  32.4635398  32.0340686
  10.2629526  38.1685398  34.3820686   9.9849526  37.9705398  33.4880686
  10.6989526  39.0185398  34.3160686  25.6639526  35.0435398  30.4960686
  26.4869526  35.4765398  30.7220686  25.0249526  35.4085398  31.1070686
  31.0479526  10.1375398  33.8790686  30.1739526  10.4165398  34.1540686
  31.0909526   9.2115398  34.1180686  35.8959526  24.5965398  39.5560686
  36.5049526  25.3255398  39.4410686  36.4569526  23.8255398  39.6390686
  36.4479526  14.9365398  32.2590686  36.0589526  14.6415398  31.4360686
  36.1159526  14.3235398  32.9150686  31.6559526  36.3835398  40.1050686
  32.0179526  35.5385398  39.8390686  32.2719526  36.7135398  40.7590686
  23.1179526  37.7305398  29.1070686  22.1809526  37.6435398  28.9300686
  23.2259526  37.3955398  29.9970686  27.4759526  32.6785398  33.7210686
  27.1729526  33.5775398  33.8470686  26.9289526  32.1565398  34.3080686
  11.6529526  34.3325398  36.4910686  10.7179526  34.4985398  36.6080686
  11.7909526  33.4615398  36.8650686  17.0909526  34.7035398  32.4860686
  17.9179526  34.2325398  32.5910686  17.3509526  35.6155398  32.3500686
  20.2039526  37.7175398  28.6210686  20.5109526  37.1285398  27.9320686
  19.4349526  38.1455398  28.2450686  26.4919526  25.4745398  43.9790686
  26.3969526  24.5965398  44.3490686  25.7269526  25.5795398  43.4140686
  14.0539526  35.7445398  44.6500686  13.3489526  35.1875398  44.9800686
  14.0789526  36.4835398  45.2580686  12.9689526  15.4395398  49.2180686
  12.5039526  14.6425398  48.9650686  12.9929526  15.9665398  48.4190686
   7.7259526  22.5435398  49.0530686   6.9029526  22.8635398  48.6810686
   7.9989526  21.8425398  48.4620686  18.3159526  19.8185398  46.2210686
  17.7319526  20.2685398  46.8310686  18.7689526  19.1675398  46.7570686
  29.1699526  17.9745398  46.8530686  29.0809526  18.2085398  45.9290686
  29.8289526  18.5815398  47.1910686  35.1269526  14.0335398  46.0660686
  34.1869526  14.1535398  45.9300686  35.3059526  13.1495398  45.7470686
  25.4529526  29.8295398  41.1980686  24.7989526  30.5195398  41.0840686
  25.3689526  29.2875398  40.4140686  17.7749526  24.4545398  47.1820686
  18.2239526  25.2955398  47.2660686  16.9669526  24.5635398  47.6840686
   9.4789526  29.2405398  44.3630686  10.2719526  29.7765398  44.3640686
   9.7629526  28.3905398  44.6990686  20.6199526  23.1485398  41.0520686
  19.9909526  22.4475398  41.2230686  20.1679526  23.7335398  40.4440686
  18.8499526  31.5885398  49.0600686  18.7799526  32.3525398  48.4890686
  19.1659526  30.8885398  48.4880686  21.6209526  34.5195398  42.4080686
  22.2449526  34.5135398  41.6820686  22.0619526  34.0345398  43.1060686
   8.6789526  16.3385398  45.6550686   9.0029526  15.5505398  45.2200686
   9.4649526  16.7645398  45.9980686  22.2449526   9.1505398  49.3890686
  21.8549526   9.8985398  48.9370686  22.1799526   8.4305398  48.7620686
  35.6249526  24.0415398  48.1600686  35.5389526  24.6195398  47.4020686
  35.2779526  24.5515398  48.8920686  15.4439526  14.8545398  44.0190686
  16.1079526  15.3765398  43.5690686  15.0779526  15.4475398  44.6760686
  14.8839526  22.2405398  47.6090686  14.2489526  21.9795398  48.2760686
  15.4549526  21.4785398  47.5100686  29.5449526  12.0755398  43.1810686
  28.7719526  12.0455398  42.6170686  29.8879526  12.9625398  43.0700686
  18.2819526  34.7675398  42.0750686  18.3409526  35.7175398  42.1770686
  18.7289526  34.4155398  42.8440686  21.6229526  27.9965398  48.3240686
  21.1109526  27.4315398  48.9020686  20.9969526  28.6505398  48.0120686
  12.0069526  22.5505398  46.5710686  12.3329526  21.7515398  46.9860686
  11.4859526  22.9785398  47.2500686  10.0899526  32.1915398  45.5100686
   9.6499526  31.6015398  46.1220686  10.8809526  31.7205398  45.2480686
  14.4669526  37.2825398  42.1970686  13.7709526  36.7575398  41.8020686
  14.3769526  37.1305398  43.1380686  22.7799526  27.0775398  45.0660686
  22.9569526  27.0735398  44.1260686  23.3379526  26.3835398  45.4180686
  13.0969526   9.3505398  44.9800686  13.9459526   8.9415398  44.8110686
  13.2509526  10.2855398  44.8480686  15.7529526  31.5555398  46.2440686
  16.2539526  31.1735398  46.9650686  16.3949526  31.6805398  45.5450686
  19.2809526  11.4975398  47.1660686  19.6729526  11.9775398  47.8960686
  19.9159526  10.8105398  46.9610686  11.5799526  12.7855398  49.1280686
  10.9089526  12.1475398  49.3680686  11.8419526  12.5375398  48.2420686
  19.7059526  11.2125398  43.1630686  19.3379526  11.5825398  42.3610686
  20.3649526  11.8495398  43.4410686  20.6949526  18.1635398  43.6850686
  21.1719526  17.4165398  44.0450686  21.3109526  18.8945398  43.7480686
  17.7709526  19.7555398  40.9920686  18.0529526  20.4355398  40.3800686
  17.6839526  20.2095398  41.8310686  13.2879526  37.2565398  47.9090686
  12.7129526  37.7925398  48.4540686  14.0289526  37.8275398  47.7060686
  29.2489526  20.4515398  49.2110686  29.2929526  21.4025398  49.1190686
  29.9079526  20.1195398  48.6010686  17.2329526  17.0145398  43.4630686
  17.8899526  17.0755398  42.7700686  17.6839526  17.3235398  44.2490686
  19.6059526  17.8625398  47.5610686  20.0139526  17.4265398  46.8120686
  19.7079526  17.2435398  48.2840686  15.5919526  12.6085398  49.1290686
  15.9529526  12.9245398  48.3010686  16.0709526  11.7985398  49.3060686
  11.2619526  16.5105398  47.0750686  10.6899526  16.8015398  47.7850686
  11.4129526  17.2965398  46.5500686  14.7359526  24.0595398  41.0780686
  15.2279526  23.3765398  41.5330686  15.2399526  24.8595398  41.2280686
  16.8619526  11.3545398  46.1580686  17.7109526  11.2055398  46.5760686
  16.8899526  10.8255398  45.3610686  26.8659526  25.4915398  47.3100686
  26.7159526  26.2665398  46.7700686  26.2199526  25.5595398  48.0130686
  16.5849526  24.4015398  44.3910686  16.8559526  24.2695398  45.3000686
  16.9959526  25.2275398  44.1360686  19.4199526  31.9095398  44.5490686
  18.6609526  31.3935398  44.2780686  20.1649526  31.4765398  44.1330686
  10.9459526  36.7375398  46.6270686  10.6229526  37.5925398  46.3420686
  11.8299526  36.9095398  46.9490686  26.0809526  16.8175398  46.4860686
  26.9989526  16.8485398  46.7570686  25.9349526  15.9055398  46.2370686
  12.8929526  24.5485398  44.8290686  13.6849526  24.1125398  44.5150686
  12.7079526  24.1315398  45.6710686  22.7249526  20.1215398  44.2400686
  23.5449526  19.6445398  44.3630686  22.5539526  20.5295398  45.0900686
  15.9779526  28.8865398  42.1160686  15.3729526  28.2485398  42.4940686
  15.8619526  29.6725398  42.6500686  20.5339526   9.0345398  45.6420686
  21.3509526   9.0135398  46.1390686  20.8079526   8.9805398  44.7260686
  18.9509526  17.3415398  41.3350686  18.5629526  18.1725398  41.0630686
  19.8949526  17.4965398  41.3090686  21.8219526  13.5005398  47.2530686
  22.3779526  12.7245398  47.1840686  22.3579526  14.1395398  47.7230686
  26.8939526  19.4235398  49.3360686  27.7969526  19.7325398  49.2580686
  26.3789526  20.0595398  48.8390686  20.7659526  20.5105398  48.8280686
  20.0479526  20.9175398  49.3140686  20.4809526  19.6075398  48.6910686
  10.2879526  23.7575398  48.5120686   9.6899526  23.8845398  47.7760686
   9.8159526  23.1775398  49.1080686  20.0429526  26.6615398  45.2280686
  19.9159526  26.9485398  46.1320686  20.9759526  26.7975398  45.0620686
  25.0539526  13.2485398  40.8510686  24.1419526  13.5165398  40.9670686
  25.2879526  12.8295398  41.6800686  13.1719526  20.2265398  43.6430686
  12.3519526  20.7195398  43.6060686  13.8099526  20.8485398  43.9920686
  18.9699526  20.4115398  43.6570686  18.6859526  20.4335398  44.5700686
  19.3739526  19.5505398  43.5510686  13.4719526  12.3485398  46.7950686
  13.9139526  12.6315398  47.5950686  13.8669526  12.8785398  46.1020686
  28.0829526  25.2875398  42.0030686  28.4399526  26.1615398  41.8440686
  27.4949526  25.4005398  42.7490686  21.9889526  35.0395398  49.3840686
  21.9259526  35.2955398  50.3050686  21.9369526  34.0835398  49.3970686
  25.0639526  18.6665398  44.8570686  25.6539526  19.4105398  44.9820686
  25.3159526  18.0435398  45.5380686  15.0919526  22.2715398  44.8040686
  15.7739526  22.8855398  44.5330686  15.0159526  22.3985398  45.7500686
  15.5959526  38.0205398  45.2370686  16.3499526  38.2865398  44.7100686
  15.7519526  38.4165398  46.0940686  24.9469526  14.2675398  46.8370686
  25.8639526  14.0825398  46.6350686  24.4579526  13.8775398  46.1130686
  16.7399526  20.3125398  48.3930686  17.4939526  20.7485398  48.7900686
  16.3679526  19.7845398  49.0990686  14.9139526  18.1755398  42.4190686
  15.7889526  17.8655398  42.6510686  14.4599526  18.2645398  43.2570686
  34.2229526  21.9605398  47.0930686  33.3029526  22.1945398  46.9710686
  34.6209526  22.7445398  47.4710686  12.4659526  14.3215398  45.0570686
  13.0279526  15.0635398  44.8340686  12.2169526  14.4745398  45.9690686
  30.6769526  19.7465398  43.8580686  29.7849526  20.0925398  43.8400686
  31.2019526  20.4145398  43.4170686  24.1489526  12.7615398  44.2110686
  24.4129526  11.8985398  44.5300686  23.4229526  12.5835398  43.6120686
  35.9209526  15.7425398  42.8050686  35.9599526  15.4485398  43.7150686
  36.6299526  15.2675398  42.3700686  12.7639526  32.0905398  40.5990686
  13.1849526  32.3395398  41.4220686  13.4739526  31.7355398  40.0650686
  10.1179526  26.7385398  41.9500686  10.2469526  27.6865398  41.9790686
  10.9629526  26.3895398  41.6690686  10.6449526  21.2525398  43.7920686
   9.8119526  20.8845398  44.0890686  10.5519526  22.1955398  43.9280686
  17.2099526  10.2335398  43.9290686  16.6599526  10.3045398  43.1480686
  18.0639526  10.5645398  43.6510686  14.8919526  25.0145398  47.5810686
  14.7049526  24.0845398  47.7060686  14.9229526  25.3755398  48.4670686
  20.1239526  22.8725398  43.7580686  20.5199526  23.1475398  42.9320686
  19.6919526  22.0435398  43.5530686  14.3009526  16.4765398  45.9030686
  13.7319526  17.2285398  46.0680686  15.0589526  16.6195398  46.4690686
  28.1549526  18.1105398  42.5310686  28.6229526  17.4875398  43.0860686
  28.6349526  18.1015398  41.7020686  11.9849526  27.3235398  47.0080686
  12.3819526  28.1685398  47.2210686  12.4989526  26.9965398  46.2700686
   7.9679526  37.6035398  41.7340686   8.2679526  38.1155398  40.9830686
   8.1279526  36.6935398  41.4840686  23.2419526  25.3055398  47.4300686
  22.5369526  25.0115398  46.8520686  22.7999526  25.5475398  48.2440686
  16.8059526  25.7345398  41.1610686  17.5709526  25.3595398  40.7250686
  17.1679526  26.2315398  41.8950686  21.4769526  29.4055398  41.5680686
  20.6069526  29.6905398  41.2890686  21.9389526  29.2115398  40.7530686
  34.0199526  20.3785398  42.3780686  34.0109526  20.9535398  43.1440686
  34.7239526  19.7545398  42.5530686  22.9239526  11.7815398  42.0100686
  23.4829526  11.0055398  41.9720686  22.5789526  11.8725398  41.1220686
  23.9889526  38.4145398  46.1950686  23.8399526  37.6795398  46.7910686
  23.7059526  38.0905398  45.3400686  16.9199526  35.6995398  45.9180686
  16.0229526  35.9175398  45.6640686  17.4579526  36.0135398  45.1910686
  18.1769526  34.1775398  47.8420686  17.9839526  34.6595398  48.6450686
  17.8499526  34.7405398  47.1400686  21.0569526  24.0025398  46.3080686
  21.2079526  23.0645398  46.1940686  20.4729526  24.2405398  45.5880686
  16.8119526  36.5405398  49.1330686  16.5119526  36.5325398  48.2250686
  16.2369526  37.1685398  49.5700686  20.9499526  15.2095398  42.9870686
  20.1579526  15.6725398  42.7110686  20.6409526  14.5645398  43.6230686
  17.5959526  28.3375398  46.6270686  16.9459526  27.9845398  46.0200686
  17.0849526  28.8485398  47.2550686  20.1809526  13.5965398  45.1810686
  20.7729526  13.5875398  45.9330686  19.4879526  12.9785398  45.4140686
   7.1279526  29.9485398  45.2160686   8.0209526  29.6255398  45.1000686
   6.5799526  29.3075398  44.7620686  22.8509526  34.3525398  45.2630686
  22.7309526  33.5705398  44.7230686  22.0099526  34.4695398  45.7060686
  12.8879526  29.8675398  47.2820686  13.5439526  30.2505398  47.8640686
  12.0719526  29.9055398  47.7810686  24.5749526  36.1425398  48.2570686
  23.7289526  35.7595398  48.4870686  24.9619526  35.5195398  47.6420686
   9.3999526  27.2575398  46.0410686   8.7529526  27.0965398  46.7290686
  10.2449526  27.1225398  46.4700686  21.3959526  37.2525398  47.8890686
  21.8459526  36.6175398  48.4450686  21.0569526  36.7345398  47.1590686
  13.5859526  27.3745398  42.8970686  12.9939526  27.9895398  42.4640686
  13.0869526  26.5595398  42.9520686  14.3549526  31.5595398  43.9090686
  14.6629526  32.3225398  43.4210686  14.7359526  31.6625398  44.7810686
  16.2569526  13.9085398  46.2650686  15.9409526  14.1415398  45.3920686
  16.5089526  12.9885398  46.1920686  10.3369526  23.9545398  43.7270686
  10.7259526  24.6125398  43.1510686  10.8899526  23.9625398  44.5080686
  18.3609526  37.8945398  41.2710686  18.2339526  37.5715398  40.3790686
  17.8159526  38.6805398  41.3210686  13.7949526  33.3375398  47.5410686
  14.4039526  32.8545398  46.9830686  13.1419526  33.6895398  46.9360686
   7.8709526  26.2485398  43.5870686   8.4649526  26.3035398  44.3360686
   8.3959526  26.5395398  42.8420686  17.9959526  30.7425398  42.4620686
  17.9609526  29.8585398  42.0960686  17.5239526  31.2835398  41.8290686
   7.7049526  23.2135398  42.9500686   7.0759526  23.9245398  43.0690686
   8.5559526  23.6135398  43.1270686  27.1759526  11.5025398  41.9350686
  27.5229526  10.8185398  41.3620686  26.3149526  11.1785398  42.2000686
  17.9559526  26.9425398  43.2810686  17.7619526  27.8745398  43.3860686
  18.6519526  26.7695398  43.9160686  20.7339526   8.9135398  42.3640686
  19.9529526   8.6905398  41.8580686  20.7389526   9.8705398  42.3900686
  10.2639526   9.0535398  45.0910686  11.2189526   9.1205398  45.0850686
   9.9679526   9.8785398  45.4750686  16.5109526  29.9255398  48.4910686
  15.9069526  29.9525398  49.2330686  17.3009526  30.3635398  48.8090686
  32.5539526  33.6415398  49.1000686  31.6669526  33.8895398  48.8410686
  32.9909526  33.4205398  48.2770686  20.3639526  34.4915398  46.0810686
  20.1679526  34.3255398  47.0030686  19.6029526  34.1545398  45.6090686
  23.7559526  20.7535398  41.7140686  23.2339526  21.5085398  41.4410686
  23.3219526  20.4355398  42.5060686  21.5909526  21.3225398  46.3890686
  21.4629526  21.1445398  47.3210686  20.7079526  21.3115398  46.0190686
  26.1159526  23.1685398  46.1230686  26.2689526  24.0115398  46.5490686
  25.9119526  22.5705398  46.8420686  19.2029526  26.8195398  48.2540686
  18.8349526  27.0475398  49.1080686  18.6549526  27.2885398  47.6240686
  32.3099526  23.3365398  41.8700686  32.4079526  22.5565398  41.3230686
  31.5269526  23.7715398  41.5290686  25.9579526  36.0805398  43.8660686
  26.8169526  35.7985398  44.1790686  25.3429526  35.7475398  44.5190686
  15.4479526  12.6485398  42.3770686  15.5389526  13.2915398  43.0800686
  14.6269526  12.1945398  42.5710686  18.2919526  37.2335398  43.9860686
  18.3019526  38.0645398  44.4620686  18.6949526  37.4365398  43.1410686
   8.7709526  36.9205398  48.0990686   9.4399526  36.4115398  47.6430686
   7.9859526  36.3745398  48.0610686   8.5029526  35.2255398  40.9130686
   9.2789526  35.5385398  40.4480686   8.3249526  34.3665398  40.5310686
  29.4559526  23.1005398  49.2050686  28.8299526  23.1365398  49.9280686
  30.2279526  23.5625398  49.5330686  20.0459526  29.8365398  46.8810686
  20.5759526  30.2765398  46.2160686  19.4929526  29.2315398  46.3860686
  10.5309526  14.6515398  42.4220686  11.0929526  15.3185398  42.0270686
  11.0659526  14.2695398  43.1180686  24.1019526  32.0685398  40.6160686
  24.5569526  32.8385398  40.9570686  23.2309526  32.3885398  40.3800686
  25.3489526  21.0685398  47.9530686  24.7969526  20.4405398  47.4870686
  24.7489526  21.5205398  48.5460686   7.2269526  12.0295398  46.3540686
   7.0819526  11.1155398  46.1120686   7.1629526  12.0375398  47.3090686
  11.8379526  34.9005398  42.5980686  11.9209526  34.1795398  43.2220686
  11.0179526  35.3315398  42.8360686  12.6079526  29.3345398  41.1510686
  11.7029526  29.3735398  40.8410686  12.9589526  30.2075398  40.9770686
  15.8229526  33.7565398  43.3010686  16.5429526  33.8265398  42.6750686
  15.3829526  34.6055398  43.2560686  11.9589526  30.4765398  45.0100686
  12.5739526  30.8075398  44.3550686  12.4779526  30.4055398  45.8120686
   8.2739526  32.3385398  42.7990686   8.7939526  31.8425398  42.1670686
   8.7119526  32.1925398  43.6370686  33.5909526  31.8805398  44.4070686
  34.3579526  31.7665398  43.8460686  33.2429526  32.7385398  44.1660686
  25.5769526  16.4985398  42.1240686  26.2899526  16.8525398  42.6550686
  25.1409526  17.2705398  41.7620686  21.5429526  29.3805398  44.2950686
  21.4579526  29.2375398  43.3520686  22.1129526  28.6725398  44.5940686
  22.8879526  37.1935398  43.7700686  22.7519526  36.2675398  43.5700686
  22.2199526  37.6505398  43.2590686  16.1759526   9.6465398  41.6920686
  15.4919526   8.9765398  41.6680686  15.7629526  10.4245398  41.3190686
  21.7609526  16.2665398  45.8720686  22.4529526  16.1455398  45.2220686
  21.4899526  15.3775398  46.1010686  19.3329526  14.8165398  48.3940686
  20.1539526  14.3895398  48.1510686  18.6669526  14.3725398  47.8690686
  32.0509526  23.5875398  46.9320686  31.1619526  23.8145398  46.6580686
  32.5819526  24.3405398  46.6740686  26.4779526  20.4945398  42.2250686
  25.5349526  20.5895398  42.0900686  26.6509526  19.5675398  42.0580686
  34.8509526  11.2555398  44.4660686  35.3059526  10.4885398  44.1180686
  34.1309526  11.4055398  43.8540686  22.9599526  15.4875398  41.1770686
  22.2929526  15.3225398  41.8440686  23.5469526  16.1275398  41.5780686
  32.5409526  15.4405398  46.0160686  31.9759526  14.6775398  45.8950686
  32.8539526  15.6495398  45.1350686  23.7979526  15.4765398  44.4030686
  24.2869526  15.9855398  43.7560686  23.8749526  14.5705398  44.1030686
  36.6229526   9.1705398  43.8930686  37.2859526   9.2335398  43.2060686
  36.2329526   8.3045398  43.7710686   7.6489526  11.9075398  42.6230686
   7.9939526  12.4125398  41.8870686   6.7099526  11.8405398  42.4490686
  32.5429526  31.4715398  46.8640686  33.2539526  31.0625398  47.3580686
  32.9159526  31.6355398  45.9980686  26.9189526  20.6325398  45.3570686
  27.3779526  20.7925398  46.1810686  26.6449526  21.5005398  45.0620686
   8.7859526  23.0335398  46.1710686   8.1639526  22.9835398  45.4440686
   8.8519526  22.1345398  46.4920686  28.7159526  27.9575398  41.7200686
  29.4939526  27.5535398  42.1030686  28.4759526  28.6495398  42.3360686
  36.3079526  32.2365398  46.3550686  36.4559526  32.7895398  45.5880686
  36.5209526  31.3515398  46.0580686  32.8269526  27.6165398  48.6970686
  31.9399526  27.5985398  49.0560686  33.2769526  26.8945398  49.1340686
  23.7439526  18.0395398  47.6170686  23.3759526  17.5725398  46.8660686
  24.6479526  17.7315398  47.6720686  25.4329526  34.2175398  46.5600686
  25.9559526  33.4705398  46.2680686  24.6869526  34.2365398  45.9610686
  11.8829526  34.2835398  45.7650686  11.4429526  35.1075398  45.9770686
  11.1699526  33.6655398  45.6050686   7.1209526  14.8055398  47.8060686
   6.5429526  14.3645398  47.1820686   7.7989526  15.2075398  47.2620686
  19.1309526  12.2595398  40.8260686  18.5389526  12.9825398  40.6190686
  19.8059526  12.3005398  40.1480686  30.0619526  38.2415398  47.1970686
  29.4079526  38.5785398  47.8090686  30.7339526  37.8495398  47.7560686
  37.1219526  17.8265398  47.8640686  36.1859526  17.7245398  48.0360686
  37.2619526  17.3815398  47.0290686   9.7269526  17.3975398  49.1510686
  10.1499526  17.5995398  49.9860686   8.8609526  17.7985398  49.2180686
  13.1559526  11.9755398  43.8520686  12.8029526  12.8395398  44.0660686
  12.4659526  11.5565398  43.3370686  27.2529526  11.7195398  47.6910686
  27.8789526  11.1535398  48.1440686  26.5189526  11.8005398  48.2990686
  12.9769526  18.7515398  45.8810686  12.7259526  19.3075398  46.6190686
  12.9629526  19.3365398  45.1240686  23.0419526  24.4155398  41.1920686
  22.1599526  24.0775398  41.3450686  23.4809526  23.7235398  40.6970686
  29.2549526  16.2385398  49.1520686  30.1689526  15.9545398  49.1200686
  29.2179526  16.9945398  48.5660686  31.4769526  19.3685398  47.7550686
  31.7849526  19.8155398  48.5430686  32.1889526  19.4765398  47.1240686
  31.5209526  16.7035398  40.6830686  32.0899526  17.3035398  40.2010686
  32.0399526  16.4395398  41.4430686  27.5359526  14.1955398  46.4680686
  27.7799526  13.4095398  46.9560686  28.3709526  14.5705398  46.1850686
  30.1309526  34.1695398  48.2650686  29.3069526  34.5855398  48.0120686
  30.1489526  33.3505398  47.7700686   8.2939526  26.8025398  48.6760686
   8.8769526  26.9305398  49.4250686   7.5039526  26.4125398  49.0500686
  31.8779526  10.5855398  46.4160686  31.2739526   9.8425398  46.4290686
  32.7479526  10.1865398  46.4210686  34.8559526  22.0695398  44.3640686
  34.8289526  22.3125398  45.2890686  34.9909526  22.8975398  43.9020686
  31.5949526  12.2565398  48.8540686  31.7559526  11.5965398  48.1800686
  32.4589526  12.4335398  49.2280686  34.9819526  24.4305398  42.3310686
  34.1529526  23.9655398  42.2120686  35.3599526  24.4745398  41.4530686
  11.4959526  19.3405398  41.5650686  10.7899526  19.9135398  41.8640686
  12.2139526  19.5045398  42.1770686  34.3279526  13.4405398  48.5780686
  34.4809526  14.3615398  48.7910686  34.6509526  13.3455398  47.6820686
  23.8759526  26.8915398  42.1980686  23.8119526  26.0005398  41.8540686
  24.5029526  27.3265398  41.6210686  15.6039526  27.3955398  45.2110686
  15.5349526  26.4655398  45.4270686  14.9639526  27.5275398  44.5120686
   8.0049526  20.6685398  44.0300686   7.8569526  21.3305398  43.3550686
   7.3349526  20.0045398  43.8660686  30.1109526  16.9045398  44.0220686
  30.3049526  17.8405398  43.9670686  30.5279526  16.6205398  44.8360686
  25.4869526  10.2375398  45.0240686  25.2619526   9.5025398  45.5940686
  26.4429526  10.2775398  45.0510686   8.0689526  20.2545398  46.9830686
   7.8959526  20.0395398  46.0660686   7.9279526  19.4325398  47.4530686
  30.1779526  14.5155398  42.8030686  30.2079526  15.4335398  43.0720686
  29.6669526  14.5185398  41.9940686  26.5199526  37.4885398  41.3860686
  27.4769526  37.4805398  41.3800686  26.2799526  36.9685398  42.1530686
  37.0899526  11.7825398  49.2520686  36.3779526  11.1575398  49.3890686
  36.7139526  12.6305398  49.4860686  15.0129526   9.3995398  47.5780686
  15.4759526   9.8745398  48.2680686  14.7019526  10.0825398  46.9840686
  33.1529526  14.6725398  43.3900686  33.8659526  14.9465398  42.8130686
  32.5659526  14.1715398  42.8240686  32.5019526  29.2855398  42.0490686
  32.5899526  29.4705398  41.1140686  33.3139526  28.8355398  42.2820686
  36.4949526  18.2475398  41.7330686  36.8729526  18.0875398  40.8690686
  35.9779526  17.4625398  41.9180686  28.8539526  21.8315398  42.9010686
  28.8639526  22.1775398  42.0090686  28.0459526  21.3205398  42.9510686
  35.1209526  34.2405398  40.7180686  34.7419526  34.8545398  40.0880686
  35.8809526  34.7015398  41.0730686  35.8499526  36.6545398  43.5650686
  35.9659526  35.7555398  43.8730686  36.5679526  36.7925398  42.9480686
  29.5229526  32.9415398  41.3360686  28.7469526  32.8695398  41.8920686
  29.5959526  32.0855398  40.9140686  26.6469526  27.7295398  45.3090686
  26.9179526  26.9715398  44.7920686  26.6619526  28.4595398  44.6900686
  34.0299526  19.0415398  46.0650686  34.3869526  19.9065398  46.2630686
  34.6329526  18.6755398  45.4170686   8.8039526  13.2185398  44.7440686
   8.4829526  12.8015398  43.9440686   8.1759526  12.9595398  45.4180686
  33.8019526  37.3645398  41.7410686  34.6219526  37.0135398  42.0880686
  33.4219526  37.8535398  42.4710686  31.2659526  26.9795398  42.2830686
  31.6239526  27.8445398  42.0820686  31.9179526  26.5775398  42.8580686
  34.9789526  11.4095398  41.3060686  34.2289526  10.8365398  41.4670686
  34.6609526  12.2865398  41.5170686  31.0909526  13.1775398  45.5880686
  30.9749526  12.9935398  44.6560686  31.3379526  12.3355398  45.9700686
  12.3679526  20.0265398  48.0650686  11.9349526  19.3935398  48.6390686
  12.6649526  20.7195398  48.6540686  34.5639526  16.7665398  47.8940686
  34.1689526  17.5265398  47.4660686  34.5429526  16.0795398  47.2280686
  11.7289526  16.6765398  40.8780686  11.6399526  17.6125398  41.0570686
  12.6699526  16.5105398  40.9330686  10.8759526  11.6095398  46.0580686
  11.8299526  11.6865398  46.0910686  10.5929526  12.3545398  45.5280686
  25.6059526  34.1715398  41.2340686  25.7029526  35.0735398  41.5400686
  26.2869526  34.0705398  40.5680686  29.6369526  24.0475398  44.8050686
  28.9789526  24.5585398  44.3330686  29.5799526  23.1715398  44.4240686
  29.0609526  38.2015398  44.8070686  28.5819526  39.0235398  44.9030686
  29.3829526  38.0065398  45.6870686  23.3269526  11.0635398  47.5530686
  23.5879526  10.1875398  47.2700686  24.1469526  11.4905398  47.7990686
  27.4189526  32.5785398  43.3410686  26.6949526  33.0675398  42.9520686
  27.3399526  32.7405398  44.2810686  34.2389526  29.8855398  48.6430686
  34.1069526  30.4695398  49.3900686  33.4559526  29.3355398  48.6260686
  28.2039526  10.5815398  45.2560686  28.2009526  11.1305398  46.0410686
  28.6509526  11.1105398  44.5950686   9.1699526  36.8045398  44.0250686
   8.7379526  37.2455398  43.2940686   9.5569526  37.5145398  44.5380686
  24.5489526  28.0855398  47.4500686  23.6609526  27.7405398  47.5440686
  24.8109526  27.8345398  46.5640686  27.0219526  32.0175398  45.9690686
  26.5489526  31.1855398  45.9860686  27.9359526  31.7765398  46.1200686
  28.6159526  35.4945398  44.4510686  28.9229526  35.1735398  43.6030686
  28.8909526  36.4115398  44.4740686  29.6559526  31.6535398  46.7660686
  29.6039526  30.8695398  47.3130686  30.5739526  31.7005398  46.4990686
  31.2019526  30.2965398  44.2520686  31.8469526  30.9195398  44.5860686
  31.5269526  30.0555398  43.3850686  32.4129526  24.9905398  44.2470686
  32.5199526  24.3345398  43.5580686  31.5789526  24.7685398  44.6620686
  26.8029526  30.0105398  48.1080686  26.2079526  29.3425398  47.7670686
  27.6009526  29.5305398  48.3270686  34.5609526  34.3065398  47.0240686
  34.8479526  33.4035398  47.1540686  34.4859526  34.4005398  46.0740686
  32.6059526  10.6115398  42.7910686  31.7869526  11.1045398  42.7460686
  32.3689526   9.7895398  43.2200686  34.9279526  24.9485398  45.4780686
  34.2549526  24.9155398  44.7980686  35.3169526  25.8195398  45.3890686
  31.7179526  38.1835398  43.7820686  30.7709526  38.0705398  43.8580686
  32.0719526  37.7745398  44.5720686  31.2449526  36.9395398  49.1880686
  32.0769526  36.4665398  49.2030686  30.6139526  36.3265398  49.5650686
  34.7199526  36.8135398  48.1030686  34.6569526  35.8615398  48.0220686
  34.6449526  36.9785398  49.0430686  35.7329526  31.8875398  42.6490686
  36.6369526  32.1925398  42.7170686  35.3199526  32.4945398  42.0350686
  22.5509526  31.9325398  43.5530686  23.0339526  31.7505398  42.7470686
  22.4559526  31.0775398  43.9730686  32.2569526  33.6295398  42.3280686
  31.3459526  33.3385398  42.3440686  32.4779526  33.6755398  41.3980686
  28.2439526  35.6365398  47.0650686  28.5089526  35.4095398  46.1740686
  28.6259526  36.5005398  47.2170686  35.7819526  27.6715398  44.3790686
  36.6499526  27.2935398  44.2340686  35.2519526  27.3385398  43.6550686
  34.4099526  27.3605398  42.0590686  34.9029526  27.6455398  41.2890686
  34.4369526  26.4045398  42.0210686   7.2609526  34.3425398  44.1590686
   7.6929526  33.8005398  43.4980686   7.9339526  34.9635398  44.4370686
  28.9969526  28.7355398  48.8030686  28.8819526  27.7915398  48.9060686
  29.5019526  28.8295398  47.9960686  34.4469526   9.6505398  46.7840686
  34.7209526  10.1335398  46.0040686  35.1039526   8.9615398  46.8830686
  36.5949526  18.0795398  44.4560686  36.3269526  17.9115398  43.5530686
  37.4289526  17.6195398  44.5490686   7.2189526   8.7495398  46.6610686
   7.2239526   8.6775398  45.7060686   7.7639526   8.0215398  46.9590686
  24.8929526   9.9685398  42.5320686  24.9079526   9.7785398  43.4700686
  25.0859526   9.1285398  42.1140686  28.3749526  29.9115398  43.7200686
  29.2809526  30.0725398  43.9830686  28.0189526  30.7815398  43.5430686
   7.6409526  31.5035398  48.9030686   7.2759526  31.9085398  48.1170686
   6.9469526  31.5815398  49.5580686  33.1689526  37.1265398  45.8440686
  33.6079526  37.4165398  46.6440686  33.6209526  36.3175398  45.6030686
  29.0889526  36.0175398  41.5350686  30.0139526  36.0825398  41.2980686
  28.8179526  35.1595398  41.2080686  24.7029526  29.2155398  43.7410686
  24.5049526  28.3645398  43.3490686  24.8629526  29.7915398  42.9940686
  10.8859526  11.1105398  42.0530686  10.2489526  11.5685398  41.5040686
  10.3589526  10.5245398  42.5950686  33.2479526  34.8745398  44.4260686
  32.7569526  35.6835398  44.5690686  32.8999526  34.5255398  43.6060686
   9.7939526  29.6315398  41.0520686   8.9529526  30.0895398  41.0610686
   9.9799526  29.4915398  40.1230686  29.4059526   9.0735398  40.5370686
  29.9389526   8.7965398  41.2820686  30.0419526   9.2875398  39.8540686
   7.9589526  14.6875398  41.4220686   8.2879526  15.1415398  40.6460686
   8.7029526  14.6685398  42.0230686  28.3779526  43.7335398  10.4480686
  27.6309526  43.4245398  10.9610686  28.0099526  44.3965398   9.8640686
  28.2149526  39.6195398   2.2520686  28.0549526  38.7705398   1.8400686
  28.7249526  40.1085398   1.6060686  12.9689526  45.4395398 -10.7819314
  12.5039526  44.6425398 -11.0349314  12.9929526  45.9665398 -11.5809314
  16.1539526  47.1525398  -1.6569314  15.5479526  46.7195398  -1.0549314
  16.4839526  46.4465398  -2.2129314   9.6229526  45.6335398   9.3640686
  10.3639526  46.0455398   9.8100686   9.9529526  45.4305398   8.4890686
  35.1269526  44.0335398 -13.9339314  34.1869526  44.1535398 -14.0699314
  35.3059526  43.1495398 -14.2529314  25.5219526  43.3275398   5.5630686
  25.2049526  42.9845398   6.3980686  25.4619526  42.5865398   4.9600686
   8.6789526  46.3385398 -14.3449314   9.0029526  45.5505398 -14.7799314
   9.4649526  46.7645398 -14.0019314  11.4679526  40.1655398  -2.8449314
  10.5369526  40.3025398  -3.0189314  11.8579526  40.0415398  -3.7099314
  18.1089526  40.6515398  -1.3369314  17.8469526  41.5725398  -1.3439314
  18.7819526  40.5985398  -0.6589314  22.2449526  39.1505398 -10.6109314
  21.8549526  39.8985398 -11.0629314  22.1799526  38.4305398 -11.2379314
  15.4439526  44.8545398 -15.9809314  16.1079526  45.3765398 -16.4309314
  15.0779526  45.4475398 -15.3239314  16.1759526  41.2775398  -7.1819314
  16.3559526  41.7335398  -8.0039314  16.8629526  41.5765398  -6.5849314
  29.5449526  42.0755398 -16.8189314  28.7719526  42.0455398 -17.3829314
  29.8879526  42.9625398 -16.9299314  14.2979526  46.6735398  10.3690686
  14.4499526  47.2125398  11.1450686  15.1549526  46.6115398   9.9480686
  11.7769526  42.0815398  -7.1359314  10.9239526  42.4205398  -7.4099314
  12.3209526  42.8615398  -7.0289314  22.6609526  42.9725398   3.7250686
  23.2129526  43.6135398   3.2770686  22.3569526  42.3895398   3.0300686
  19.0319526  43.4015398  -1.0519314  19.9009526  43.7875398  -1.1589314
  18.8559526  43.4625398  -0.1129314  16.4809526  44.4685398  -5.9229314
  15.5579526  44.2915398  -5.7419314  16.6349526  44.0805398  -6.7839314
  19.8169526  43.2125398  -6.4479314  20.6459526  42.7465398  -6.5599314
  19.4599526  42.8715398  -5.6269314  18.3679526  47.1225398 -10.1329314
  18.4309526  46.4135398  -9.4919314  17.7629526  47.7495398  -9.7389314
  13.0969526  39.3505398 -15.0199314  13.9459526  38.9415398 -15.1889314
  13.2509526  40.2855398 -15.1519314  16.5019526  47.1915398 -12.9189314
  16.9909526  46.9255398 -12.1399314  17.1089526  47.7525398 -13.4019314
  19.2809526  41.4975398 -12.8339314  19.6729526  41.9775398 -12.1039314
  19.9159526  40.8105398 -13.0389314  10.8829526  44.3995398  -0.9369314
  11.6259526  43.8645398  -1.2149314  10.1319526  44.0245398  -1.3979314
  14.3549526  43.9575398  -8.7129314  13.7399526  44.5355398  -9.1649314
  14.7309526  43.4165398  -9.4069314  11.5799526  42.7855398 -10.8719314
  10.9089526  42.1475398 -10.6319314  11.8419526  42.5375398 -11.7579314
  19.7059526  41.2125398 -16.8369314  19.3379526  41.5825398 -17.6389314
  20.3649526  41.8495398 -16.5589314  22.7289526  45.0825398 -10.4959314
  22.7099526  45.0825398  -9.5389314  23.6309526  45.3165398 -10.7169314
   8.6659526  40.3075398  -7.1039314   8.7599526  39.8685398  -7.9489314
   8.8709526  41.2245398  -7.2849314  17.2329526  47.0145398 -16.5369314
  17.8899526  47.0755398 -17.2299314  17.6839526  47.3235398 -15.7509314
  17.0629526  40.0915398 -10.3169314  17.9759526  40.2545398 -10.5539314
  17.1059526  39.7255398  -9.4339314  11.5599526  45.4615398   1.6120686
  11.4659526  45.1875398   0.6990686  11.5499526  46.4175398   1.5780686
  23.8889526  47.3075398   2.4300686  23.2159526  46.7335398   2.0640686
  24.4739526  46.7185398   2.9060686  24.4239526  39.7855398  -2.1109314
  24.2359526  40.6355398  -1.7129314  23.6819526  39.2345398  -1.8629314
  15.5919526  42.6085398 -10.8709314  15.9529526  42.9245398 -11.6989314
  16.0709526  41.7985398 -10.6939314  11.2619526  46.5105398 -12.9249314
  10.6899526  46.8015398 -12.2149314  11.4129526  47.2965398 -13.4499314
  16.8619526  41.3545398 -13.8419314  17.7109526  41.2055398 -13.4239314
  16.8899526  40.8255398 -14.6389314  20.0819526  44.5495398   1.4220686
  20.3569526  45.4635398   1.3510686  20.5449526  44.2195398   2.1920686
  22.0969526  45.5875398   8.5650686  22.3219526  45.5125398   9.4920686
  21.2399526  45.1675398   8.4910686  36.1609526  40.8385398  -5.9029314
  36.2799526  41.1935398  -5.0219314  37.0499526  40.6975398  -6.2279314
   9.5599526  40.7395398  -9.9969314   9.0109526  41.4775398 -10.2639314
   8.9719526  39.9845398 -10.0159314  15.1099526  39.5215398  -5.4199314
  15.2769526  40.2745398  -5.9869314  15.6749526  39.6645398  -4.6589314
  26.0809526  46.8175398 -13.5139314  26.9989526  46.8485398 -13.2429314
  25.9349526  45.9055398 -13.7629314  20.5339526  39.0345398 -14.3579314
  21.3509526  39.0135398 -13.8609314  20.8079526  38.9805398 -15.2739314
  18.9509526  47.3415398 -18.6649314  18.5629526  48.1725398 -18.9369314
  19.8949526  47.4965398 -18.6909314  21.8219526  43.5005398 -12.7469314
  22.3779526  42.7245398 -12.8159314  22.3579526  44.1395398 -12.2769314
  11.5219526  38.4405398 -10.3309314  12.0439526  38.7995398  -9.6139314
  10.7979526  39.0585398 -10.4339314  35.8919526  45.2225398  -4.3659314
  35.6849526  44.8105398  -5.2039314  35.0679526  45.6215398  -4.0849314
   9.2839526  40.9035398  -4.4629314   9.0759526  40.4855398  -5.2989314
   9.8489526  41.6405398  -4.6979314  27.4439526  39.6625398  -5.0889314
  28.3349526  39.5355398  -5.4149314  27.4179526  40.5795398  -4.8139314
  13.0509526  39.7665398  -8.6439314  13.7989526  40.3615398  -8.5999314
  12.2919526  40.3205398  -8.4599314  25.0539526  43.2485398 -19.1489314
  24.1419526  43.5165398 -19.0329314  25.2879526  42.8295398 -18.3199314
  13.4719526  42.3485398 -13.2049314  13.9139526  42.6315398 -12.4049314
  13.8669526  42.8785398 -13.8979314  17.6229526  43.3075398  -8.3979314
  17.5369526  43.9785398  -9.0759314  18.4699526  43.4855398  -7.9899314
  24.9469526  44.2675398 -13.1629314  25.8639526  44.0825398 -13.3649314
  24.4579526  43.8775398 -13.8869314  31.9109526  45.9005398 -10.8729314
  32.0209526  45.2015398 -11.5179314  32.5889526  46.5385398 -11.0929314
  23.4969526  42.0995398  -0.4349314  24.1999526  42.7495398  -0.4379314
  23.2869526  41.9775398   0.4910686  18.7349526  46.5975398   4.1240686
  19.0099526  45.9645398   4.7880686  19.0209526  47.4435398   4.4680686
  20.5779526  46.8305398  -1.7009314  19.6619526  46.9435398  -1.4449314
  20.8079526  47.6505398  -2.1379314  12.4659526  44.3215398 -14.9429314
  13.0279526  45.0635398 -15.1659314  12.2169526  44.4745398 -14.0309314
  24.1489526  42.7615398 -15.7889314  24.4129526  41.8985398 -15.4699314
  23.4229526  42.5835398 -16.3879314  16.3899526  43.2195398  -2.8039314
  15.5679526  43.2365398  -3.2939314  16.1209526  43.1805398  -1.8859314
  35.9209526  45.7425398 -17.1949314  35.9599526  45.4485398 -16.2849314
  36.6299526  45.2675398 -17.6299314  19.9219526  44.5665398   6.3730686
  19.3119526  45.2705398   6.5910686  19.3799526  43.9025398   5.9470686
  24.9269526  44.2715398  -1.1309314  25.8299526  44.0905398  -1.3939314
  24.8759526  45.2265398  -1.0879314  12.7539526  46.6455398  -1.2309314
  13.3529526  46.3495398  -0.5449314  12.2789526  45.8565398  -1.4909314
  13.0009526  44.7345398   3.6930686  12.9539526  43.7785398   3.6780686
  12.3479526  45.0175398   3.0540686  19.1699526  40.7585398   6.1720686
  18.9849526  40.8125398   7.1090686  18.7649526  41.5425398   5.8010686
  27.2059526  42.3075398  -4.4559314  27.6979526  42.9715398  -4.9389314
  26.3539526  42.2765398  -4.8909314  12.7859526  45.0315398   8.4820686
  13.3629526  45.2545398   7.7520686  13.3199526  45.1775398   9.2630686
  17.2099526  40.2335398 -16.0709314  16.6599526  40.3045398 -16.8519314
  18.0639526  40.5645398 -16.3489314  14.2449526  45.6105398   6.0580686
  13.7639526  45.4965398   5.2390686  14.3639526  46.5565398   6.1370686
  31.8579526  44.5405398  -2.3369314  30.9189526  44.5005398  -2.5189314
  32.2719526  44.2115398  -3.1349314  18.5129526  39.8845398   2.8810686
  18.8879526  39.7655398   3.7540686  19.2629526  40.0905398   2.3230686
  11.4639526  40.5055398   3.1090686  12.1349526  41.0575398   3.5120686
  10.8439526  41.1245398   2.7250686   8.8649526  39.0965398   9.4530686
   9.6649526  39.5425398   9.7310686   8.1979526  39.7835398   9.4450686
  17.9019526  42.9805398   5.2230686  17.0029526  43.0435398   5.5460686
  17.8119526  42.9345398   4.2710686  14.5009526  46.7175398   3.0560686
  14.0939526  45.8595398   3.1740686  13.9879526  47.1335398   2.3630686
  13.0489526  40.9565398  10.1690686  12.4929526  40.8845398  10.9440686
  12.5649526  40.4985398   9.4820686  36.0239526  38.3755398   7.8850686
  36.3939526  39.1195398   8.3600686  36.5489526  38.3145398   7.0870686
  25.9169526  42.0015398   2.8670686  25.9489526  41.0875398   3.1510686
  26.4269526  42.0185398   2.0570686  21.7479526  40.1145398   4.8450686
  22.3889526  40.0215398   5.5500686  20.9809526  40.5005398   5.2680686
  14.3009526  46.4765398 -14.0969314  13.7319526  47.2285398 -13.9319314
  15.0589526  46.6195398 -13.5309314  37.2059526  46.6355398  -8.0609314
  37.2829526  45.7215398  -8.3359314  36.3839526  46.9345398  -8.4489314
  13.9989526  43.0405398  -4.0119314  13.5169526  43.5925398  -4.6269314
  13.3719526  42.8555398  -3.3129314  22.3409526  46.7495398   5.8500686
  21.6269526  46.1165398   5.9210686  22.8119526  46.6745398   6.6800686
  22.5329526  38.6315398  -6.2539314  23.1979526  37.9815398  -6.0249314
  22.6779526  39.3505398  -5.6399314  12.2049526  42.4765398   7.3900686
  11.2769526  42.6115398   7.1990686  12.4389526  43.2005398   7.9700686
  28.6319526  40.7495398   4.8230686  28.2849526  40.5865398   3.9460686
  28.5329526  39.9145398   5.2800686   7.2569526  47.2785398   0.8880686
   6.9729526  46.4755398   1.3240686   7.0709526  47.9735398   1.5190686
  10.6469526  45.6615398   6.5610686  11.4469526  45.1425398   6.6450686
  10.5009526  45.7255398   5.6170686  35.5229526  39.7875398  -1.7109314
  35.4659526  38.8635398  -1.4669314  35.4689526  40.2585398  -0.8789314
  22.9239526  41.7815398 -17.9899314  23.4829526  41.0055398 -18.0279314
  22.5789526  41.8725398 -18.8779314   7.9649526  41.8885398   4.4770686
   7.6459526  41.0115398   4.2660686   8.7279526  42.0095398   3.9110686
  17.6089526  45.6485398  -3.5559314  17.6339526  44.7945398  -3.1239314
  17.2309526  45.4705398  -4.4169314  22.6479526  42.6595398   6.6320686
  21.9529526  43.3175398   6.6430686  22.8809526  42.5715398   5.7080686
  16.4679526  46.5545398   8.7740686  15.8919526  46.6475398   8.0150686
  17.2769526  46.9965398   8.5170686  15.0369526  45.5675398   0.2530686
  15.0139526  44.6115398   0.2260686  15.8769526  45.7765398   0.6630686
   8.2119526  44.5245398  -9.8419314   7.7389526  44.7915398 -10.6299314
   9.0109526  45.0515398  -9.8509314   9.2579526  43.1475398  -7.3929314
   8.7819526  43.4885398  -8.1499314   8.9339526  43.6615398  -6.6539314
  20.9499526  45.2095398 -17.0129314  20.1579526  45.6725398 -17.2889314
  20.6409526  44.5645398 -16.3769314  20.1809526  43.5965398 -14.8189314
  20.7729526  43.5875398 -14.0669314  19.4879526  42.9785398 -14.5859314
  16.2569526  43.9085398 -13.7349314  15.9409526  44.1415398 -14.6079314
  16.5089526  42.9885398 -13.8079314  19.9459526  40.5225398  -9.8749314
  20.7239526  40.0265398  -9.6189314  19.7289526  41.0445398  -9.1029314
  27.1759526  41.5025398 -18.0649314  27.5229526  40.8185398 -18.6379314
  26.3149526  41.1785398 -17.7999314  35.2669526  40.8925398   0.6680686
  34.4649526  40.6795398   1.1460686  35.5189526  41.7565398   0.9930686
   8.0819526  38.4655398   6.2540686   8.8669526  38.5365398   5.7110686
   8.3319526  38.8595398   7.0900686  17.5229526  39.9145398  -3.7609314
  17.6889526  39.9425398  -2.8179314  17.7979526  40.7745398  -4.0779314
  33.4279526  46.9915398  -4.7759314  33.0219526  47.8585398  -4.7559314
  32.6899526  46.3815398  -4.7829314  20.7339526  38.9135398 -17.6359314
  19.9529526  38.6905398 -18.1419314  20.7389526  39.8705398 -17.6099314
  10.2639526  39.0535398 -14.9089314  11.2189526  39.1205398 -14.9149314
   9.9679526  39.8785398 -14.5249314  20.0409526  39.7755398  -6.9479314
  20.6639526  39.0755398  -6.7509314  19.1969526  39.4345398  -6.6529314
  14.2899526  40.6555398   0.3140686  14.8419526  39.8895398   0.1570686
  13.5389526  40.3145398   0.8010686  34.4429526  38.7805398  -6.6499314
  34.5999526  38.1435398  -5.9529314  35.0269526  39.5105398  -6.4439314
  15.4479526  42.6485398 -17.6229314  15.5389526  43.2915398 -16.9199314
  14.6269526  42.1945398 -17.4289314  10.5309526  44.6515398 -17.5779314
  11.0929526  45.3185398 -17.9729314  11.0659526  44.2695398 -16.8819314
   7.2269526  42.0295398 -13.6459314   7.0819526  41.1155398 -13.8879314
   7.1629526  42.0375398 -12.6909314  26.9939526  38.7615398   6.8320686
  26.3969526  38.5235398   7.5410686  27.3859526  39.5875398   7.1150686
  15.7859526  43.4065398   6.7360686  15.6559526  43.3055398   7.6790686
  15.0569526  43.9575398   6.4500686  12.1449526  39.4705398   8.1340686
  12.3269526  40.2795398   7.6570686  12.0139526  38.8135398   7.4500686
  15.5499526  41.0245398   5.4460686  15.1819526  40.2825398   5.9250686
  15.5589526  41.7395398   6.0820686  33.8609526  42.1355398   3.2440686
  33.8629526  41.3075398   3.7240686  34.4449526  42.7045398   3.7440686
  17.0089526  42.0245398   2.3410686  16.2049526  41.9315398   2.8520686
  17.5989526  41.3605398   2.6970686  17.9349526  40.6615398   8.6460686
  17.0549526  40.4625398   8.3260686  17.8109526  40.8805398   9.5690686
  22.9689526  40.5745398   2.2160686  22.6049526  40.4265398   3.0890686
  23.8729526  40.2665398   2.2780686  21.6249526  41.8275398   9.2540686
  21.2619526  40.9585398   9.0780686  22.1439526  42.0315398   8.4760686
  20.1549526  40.0245398   0.5170686  21.0549526  40.0745398   0.8400686
  20.0299526  39.1015398   0.2970686  15.3429526  39.7375398   8.6600686
  14.6859526  39.8785398   9.3420686  15.2789526  38.8035398   8.4560686
  25.5769526  46.4985398 -17.8759314  26.2899526  46.8525398 -17.3449314
  25.1409526  47.2705398 -18.2379314  32.1839526  41.4835398   5.9210686
  31.8499526  41.1645398   5.0830686  32.7269526  40.7675398   6.2510686
  16.1759526  39.6465398 -18.3079314  15.4919526  38.9765398 -18.3319314
  15.7629526  40.4245398 -18.6809314  12.5919526  38.6465398   1.4140686
  12.2419526  39.2735398   2.0470686  12.4539526  37.7915398   1.8230686
  21.7609526  46.2665398 -14.1279314  22.4529526  46.1455398 -14.7779314
  21.4899526  45.3775398 -13.8989314  19.3329526  44.8165398 -11.6059314
  20.1539526  44.3895398 -11.8489314  18.6669526  44.3725398 -12.1309314
  17.8639526  44.6815398  10.4830686  18.2109526  45.3595398  11.0620686
  17.2439526  45.1425398   9.9170686  26.4669526  46.0165398  -6.6909314
  26.6539526  46.4495398  -7.5239314  26.0699526  46.6985398  -6.1489314
  34.5689526  42.4645398  -8.8299314  34.4269526  42.7645398  -9.7269314
  34.8039526  41.5405398  -8.9189314  30.9319526  46.3815398  -8.3499314
  30.3549526  46.9555398  -8.8529314  31.5929526  46.0945398  -8.9799314
  31.2299526  39.8205398  -8.5409314  30.3139526  39.9395398  -8.2909314
  31.1999526  39.2125398  -9.2789314   7.1509526  45.1985398  -1.8999314
   7.8689526  45.8025398  -1.7109314   6.8079526  45.4915398  -2.7439314
  25.7129526  43.3605398  -6.9749314  26.2829526  42.9535398  -7.6279314
  26.0869526  44.2315398  -6.8389314  34.8509526  41.2555398 -15.5339314
  35.3059526  40.4885398 -15.8819314  34.1309526  41.4055398 -16.1459314
  22.9599526  45.4875398 -18.8229314  22.2929526  45.3225398 -18.1559314
  23.5469526  46.1275398 -18.4219314  33.0299526  43.9065398  -4.7149314
  33.2489526  44.3095398  -5.5549314  32.8529526  42.9905398  -4.9269314
  32.5409526  45.4405398 -13.9839314  31.9759526  44.6775398 -14.1049314
  32.8539526  45.6495398 -14.8649314  23.7979526  45.4765398 -15.5969314
  24.2869526  45.9855398 -16.2439314  23.8749526  44.5705398 -15.8969314
  12.7059526  42.3865398  -1.5209314  13.2199526  41.8855398  -0.8889314
  12.1999526  41.7265398  -1.9959314  32.3869526  44.0875398   0.2560686
  33.2619526  43.7525398   0.0600686  32.0119526  44.2945398  -0.5999314
  17.5979526  45.6055398   1.4310686  18.4379526  45.2635398   1.1230686
  17.7189526  45.7255398   2.3730686  36.6229526  39.1705398 -16.1069314
  37.2859526  39.2335398 -16.7939314  36.2329526  38.3045398 -16.2289314
   7.6489526  41.9075398 -17.3769314   7.9939526  42.4125398 -18.1129314
   6.7099526  41.8405398 -17.5509314  25.1069526  45.4775398   7.7360686
  24.4159526  45.0315398   8.2250686  25.1899526  44.9755398   6.9250686
  33.8329526  42.0845398  -1.6209314  33.5559526  42.5535398  -2.4079314
  33.1369526  41.4475398  -1.4629314  26.9859526  46.2535398   9.7510686
  26.5459526  45.9885398   8.9430686  26.3639526  46.0395398  10.4450686
  28.3569526  39.2265398 -10.8999314  28.4899526  39.5705398 -10.0169314
  27.6819526  38.5555398 -10.7959314  31.2739526  42.9005398   9.7920686
  31.0099526  43.4925398   9.0880686  30.5249526  42.8885398  10.3890686
  34.1109526  39.0855398   3.8730686  33.2019526  38.8435398   3.6940686
  34.5489526  38.2545398   4.0570686  30.4529526  43.5155398  -7.6679314
  30.8549526  44.3515398  -7.9059314  31.1939526  42.9355398  -7.4899314
  32.0659526  39.4995398   0.6300686  31.7629526  39.8675398  -0.1999314
  31.5659526  39.9685398   1.2980686  33.4119526  45.9635398   4.4590686
  33.3919526  45.2235398   5.0650686  34.1949526  46.4555398   4.7070686
   7.1209526  44.8055398 -12.1939314   6.5429526  44.3645398 -12.8179314
   7.7989526  45.2075398 -12.7379314  12.5009526  40.1095398  -5.3819314
  13.4429526  40.0165398  -5.5289314  12.2099526  40.7155398  -6.0629314
  19.1309526  42.2595398 -19.1739314  18.5389526  42.9825398 -19.3809314
  19.8059526  42.3005398 -19.8519314  31.5499526  40.5575398  -1.9169314
  31.7879526  40.6545398  -2.8389314  31.0099526  39.7675398  -1.8899314
  15.6399526  42.8695398  -0.0549314  16.2469526  42.5665398   0.6210686
  14.9049526  42.2575398  -0.0079314  34.7639526  45.7005398   9.0100686
  35.2829526  46.4745398   8.7900686  34.6039526  45.2705398   8.1700686
  28.3239526  40.2005398  -8.4329314  28.1469526  40.2185398  -7.4929314
  28.1879526  41.1035398  -8.7199314  29.2069526  44.6945398  -3.0219314
  28.6659526  45.2885398  -2.5019314  28.7709526  44.6545398  -3.8729314
  35.0849526  40.0145398 -10.1869314  34.7589526  39.2445398  -9.7219314
  34.6759526  39.9645398 -11.0509314   9.7859526  42.5605398   2.3880686
   9.3959526  42.0575398   1.6730686  10.0899526  43.3685398   1.9730686
  19.2299526  45.9265398  -7.2609314  20.1699526  45.9015398  -7.4399314
  19.0569526  45.1205398  -6.7749314   9.0569526  46.7225398  -1.0559314
   9.9079526  47.1265398  -0.8879314   8.4989526  47.0325398  -0.3429314
  34.5939526  44.4285398  -6.8069314  34.7249526  43.6035398  -7.2749314
  34.5229526  45.0875398  -7.4979314  13.1559526  41.9755398 -16.1479314
  12.8029526  42.8395398 -15.9339314  12.4659526  41.5565398 -16.6629314
  27.2529526  41.7195398 -12.3089314  27.8789526  41.1535398 -11.8559314
  26.5189526  41.8005398 -11.7009314  29.2549526  46.2385398 -10.8479314
  30.1689526  45.9545398 -10.8799314  29.2179526  46.9945398 -11.4339314
  34.2009526  46.3935398  -8.7239314  33.7599526  47.1305398  -8.3009314
  34.3759526  46.6985398  -9.6149314  31.5209526  46.7035398 -19.3169314
  32.0899526  47.3035398 -19.7989314  32.0399526  46.4395398 -18.5569314
  27.5359526  44.1955398 -13.5319314  27.7799526  43.4095398 -13.0439314
  28.3709526  44.5705398 -13.8149314  22.1609526  41.5805398  -7.5099314
  23.0209526  41.1725398  -7.6129314  21.6669526  40.9665398  -6.9659314
   8.3449526  45.2815398  -5.3199314   7.4569526  45.2085398  -4.9729314
   8.6379526  46.1515398  -5.0499314  31.8779526  40.5855398 -13.5839314
  31.2739526  39.8425398 -13.5709314  32.7479526  40.1865398 -13.5789314
  31.5949526  42.2565398 -11.1459314  31.7559526  41.5965398 -11.8199314
  32.4589526  42.4335398 -10.7719314  28.5109526  44.4295398  -5.7569314
  27.8349526  44.9245398  -6.2199314  29.1289526  44.1705398  -6.4409314
  34.3279526  43.4405398 -11.4219314  34.4809526  44.3615398 -11.2089314
  34.6509526  43.3455398 -12.3179314  30.3489526  38.9395398  -5.2579314
  30.7939526  38.2325398  -5.7249314  31.0389526  39.5755398  -5.0709314
  23.3519526  44.1335398  -7.6779314  24.2459526  43.8235398  -7.5379314
  22.8169526  43.3405398  -7.6569314  32.3509526  40.9925398  -4.3329314
  33.2499526  40.6685398  -4.2689314  32.2029526  41.1055398  -5.2719314
  30.1109526  46.9045398 -15.9779314  30.3049526  47.8405398 -16.0329314
  30.5279526  46.6205398 -15.1639314  25.4869526  40.2375398 -14.9759314
  25.2619526  39.5025398 -14.4059314  26.4429526  40.2775398 -14.9489314
  26.9999526  46.8375398  -9.4169314  26.9999526  47.7215398  -9.7839314
  27.7039526  46.3855398  -9.8799314  25.6349526  44.7055398 -10.5369314
  25.7769526  44.7755398 -11.4809314  25.9489526  45.5375398 -10.1839314
  24.6729526  40.5875398  -7.7839314  24.6259526  40.3955398  -6.8469314
  24.5319526  39.7425398  -8.2089314  30.1779526  44.5155398 -17.1969314
  30.2079526  45.4335398 -16.9279314  29.6669526  44.5185398 -18.0059314
  30.1829526  43.0515398   7.1340686  30.8829526  42.6235398   6.6420686
  29.5459526  43.3115398   6.4690686  37.0899526  41.7825398 -10.7479314
  36.3779526  41.1575398 -10.6109314  36.7139526  42.6305398 -10.5139314
  15.0129526  39.3995398 -12.4219314  15.4759526  39.8745398 -11.7319314
  14.7019526  40.0825398 -13.0159314  33.1529526  44.6725398 -16.6099314
  33.8659526  44.9465398 -17.1869314  32.5659526  44.1715398 -17.1759314
  35.4559526  43.9375398  -0.1819314  35.8939526  44.4635398  -0.8509314
  35.1499526  43.1605398  -0.6499314  20.7959526  39.2785398   9.3110686
  19.8989526  39.1455398   9.6160686  21.3349526  39.1625398  10.0940686
  28.0319526  42.8545398  -1.7279314  27.6719526  42.3765398  -2.4749314
  28.6139526  43.5065398  -2.1189314  31.2029526  40.2055398   8.6320686
  31.8709526  39.9005398   8.0180686  31.4959526  41.0795398   8.8900686
   7.7729526  42.9515398   7.0970686   7.9119526  42.8055398   6.1620686
   7.9669526  43.8795398   7.2270686  28.2839526  43.4705398   4.9250686
  27.4399526  43.7345398   5.2900686  28.3459526  42.5345398   5.1150686
  33.6339526  44.0495398   6.4560686  32.9109526  43.4365398   6.3230686
  34.4129526  43.5645398   6.1830686   9.7389526  45.5425398   3.8470686
  10.0059526  46.3545398   3.4150686   9.1939526  45.0945398   3.1990686
  34.0989526  46.2245398   1.4270686  34.2539526  46.0375398   2.3530686
  33.2649526  45.7955398   1.2330686  29.2769526  45.8195398   3.7510686
  29.7229526  45.7005398   2.9130686  29.0749526  44.9305398   4.0440686
   8.8039526  43.2185398 -15.2559314   8.4829526  42.8015398 -16.0559314
   8.1759526  42.9595398 -14.5819314  34.9789526  41.4095398 -18.6939314
  34.2289526  40.8365398 -18.5329314  34.6609526  42.2865398 -18.4829314
  24.6789526  44.4155398   2.3820686  25.0169526  43.5215398   2.4320686
  25.3299526  44.8905398   1.8650686  25.7229526  42.2635398   8.2160686
  26.5359526  41.7655398   8.1310686  25.6759526  42.4905398   9.1450686
  27.1579526  45.0725398   1.1940686  27.5009526  44.2105398   0.9590686
  27.9369526  45.6075398   1.3460686  36.5039526  41.6365398  -3.4109314
  36.3269526  40.8555398  -2.8859314  35.9969526  42.3295398  -2.9869314
  24.9699526  46.0955398   4.6390686  24.8479526  45.1465398   4.6090686
  24.1059526  46.4415398   4.8650686  36.9399526  41.0645398   9.2250686
  36.4019526  41.3945398   9.9440686  36.8099526  41.6965398   8.5180686
  31.0909526  43.1775398 -14.4119314  30.9749526  42.9935398 -15.3439314
  31.3379526  42.3355398 -14.0299314  35.7879526  43.4515398   4.4900686
  36.3189526  44.1355398   4.8990686  36.3609526  42.6855398   4.4650686
   9.6069526  42.2615398   9.5110686   9.4299526  43.2005398   9.5540686
   9.0949526  41.9535398   8.7630686  30.1869526  45.5645398   1.2490686
  30.6619526  46.2605398   0.7950686  30.6729526  44.7665398   1.0390686
   7.2109526  45.6445398   5.5530686   8.0909526  45.7785398   5.1990686
   6.7679526  46.4825398   5.4180686  28.3729526  42.6835398  -9.2459314
  29.2609526  42.9015398  -8.9629314  28.0469526  43.4875398  -9.6519314
  13.1419526  44.5095398  -6.4929314  13.8519526  44.3965398  -7.1249314
  13.0699526  45.4565398  -6.3789314  31.2039526  42.1865398   1.6400686
  31.6779526  42.9465398   1.3010686  31.6319526  41.9895398   2.4730686
  20.8319526  44.9235398  -3.8439314  21.3349526  45.3185398  -4.5559314
  20.5179526  45.6685398  -3.3309314  24.3059526  40.7125398  -5.2199314
  24.5469526  40.1545398  -4.4799314  24.0859526  41.5555398  -4.8229314
  13.2659526  42.1165398   4.3780686  14.1219526  41.9045398   4.7510686
  12.7169526  42.3155398   5.1360686  34.5639526  46.7665398 -12.1059314
  34.1689526  47.5265398 -12.5339314  34.5429526  46.0795398 -12.7719314
  11.7289526  46.6765398 -19.1219314  11.6399526  47.6125398 -18.9429314
  12.6699526  46.5105398 -19.0669314  10.6689526  43.7645398  -4.7599314
  11.3769526  44.2175398  -5.2189314   9.9369526  44.3815398  -4.7789314
  21.4579526  47.0655398   1.0080686  21.5169526  48.0175398   1.0850686
  21.4879526  46.8985398   0.0660686   8.7999526  43.0295398  -2.1209314
   8.3579526  42.5835398  -2.8439314   8.1709526  43.6875398  -1.8249314
  10.8759526  41.6095398 -13.9419314  11.8299526  41.6865398 -13.9089314
  10.5929526  42.3545398 -14.4719314  26.6439526  38.5295398  -2.2459314
  26.9419526  38.8195398  -3.1079314  25.7699526  38.9075398  -2.1539314
  23.3269526  41.0635398 -12.4469314  23.5879526  40.1875398 -12.7299314
  24.1469526  41.4905398 -12.2009314  24.9449526  42.1195398 -10.6599314
  25.1119526  43.0495398 -10.5039314  24.7849526  41.7545398  -9.7899314
  28.7889526  38.4825398  -0.0769314  29.4009526  38.2685398  -0.7819314
  28.0459526  38.8915398  -0.5209314  28.2039526  40.5815398 -14.7439314
  28.2009526  41.1305398 -13.9589314  28.6509526  41.1105398 -15.4049314
  32.3189526  41.7175398  -7.0729314  31.9459526  41.1105398  -7.7119314
  33.1749526  41.9495398  -7.4329314  32.6059526  40.6115398 -17.2089314
  31.7869526  41.1045398 -17.2539314  32.3689526  39.7895398 -16.7799314
  18.8849526  42.6515398  -4.0169314  18.1479526  42.8575398  -3.4409314
  19.5869526  43.2325398  -3.7249314  23.1369526  43.0345398  -3.7119314
  23.1709526  42.9805398  -2.7569314  22.5429526  43.7645398  -3.8889314
  34.4469526  39.6505398 -13.2159314  34.7209526  40.1335398 -13.9959314
  35.1039526  38.9615398 -13.1169314   7.2189526  38.7495398 -13.3389314
   7.2239526  38.6775398 -14.2939314   7.7639526  38.0215398 -13.0409314
  24.8929526  39.9685398 -17.4679314  24.9079526  39.7785398 -16.5299314
  25.0859526  39.1285398 -17.8859314  14.9359526  43.1245398   9.3480686
  15.3109526  43.2095398  10.2240686  14.4529526  42.2985398   9.3720686
  28.1819526  41.3175398   8.2350686  28.7189526  40.7365398   8.7740686
  28.7959526  41.9735398   7.9040686  36.8289526  39.7205398   3.2440686
  37.0619526  39.0685398   2.5830686  35.8869526  39.6055398   3.3730686
  33.7179526  43.6395398  10.6730686  32.8939526  43.2425398  10.3910686
  33.7129526  44.5095398  10.2740686  33.2069526  39.1475398   7.0560686
  32.9769526  38.5585398   6.3380686  33.9999526  38.7675398   7.4340686
  10.8859526  41.1105398 -17.9469314  10.2489526  41.5685398 -18.4959314
  10.3589526  40.5245398 -17.4049314  27.8279526  42.3725398   0.7640686
  27.9529526  42.4225398  -0.1829314  28.6989526  42.5235398   1.1300686
  23.9259526  39.6805398   7.6070686  24.5659526  39.0655398   7.9670686
  24.2129526  40.5375398   7.9220686  31.0479526  40.1375398   3.8790686
  30.1739526  40.4165398   4.1540686  31.0909526  39.2115398   4.1180686
  36.4479526  44.9365398   2.2590686  36.0589526  44.6415398   1.4360686
  36.1159526  44.3235398   2.9150686  29.4059526  39.0735398 -19.4629314
  29.9389526  38.7965398 -18.7179314  30.0419526  39.2875398 -20.1459314
   9.1539526  40.9125398   0.1570686   9.1259526  41.5715398  -0.5369314
   8.4819526  40.2765398  -0.0879314   7.9589526  44.6875398 -18.5779314
   8.2879526  45.1415398 -19.3539314   8.7029526  44.6685398 -17.9769314
  28.3779526  43.7335398  40.4480686  27.6309526  43.4245398  40.9610686
  28.0099526  44.3965398  39.8640686  28.2149526  39.6195398  32.2520686
  28.0549526  38.7705398  31.8400686  28.7249526  40.1085398  31.6060686
  12.9689526  45.4395398  19.2180686  12.5039526  44.6425398  18.9650686
  12.9929526  45.9665398  18.4190686  16.1539526  47.1525398  28.3430686
  15.5479526  46.7195398  28.9450686  16.4839526  46.4465398  27.7870686
   9.6229526  45.6335398  39.3640686  10.3639526  46.0455398  39.8100686
   9.9529526  45.4305398  38.4890686  35.1269526  44.0335398  16.0660686
  34.1869526  44.1535398  15.9300686  35.3059526  43.1495398  15.7470686
  25.5219526  43.3275398  35.5630686  25.2049526  42.9845398  36.3980686
  25.4619526  42.5865398  34.9600686   8.6789526  46.3385398  15.6550686
   9.0029526  45.5505398  15.2200686   9.4649526  46.7645398  15.9980686
  11.4679526  40.1655398  27.1550686  10.5369526  40.3025398  26.9810686
  11.8579526  40.0415398  26.2900686  18.1089526  40.6515398  28.6630686
  17.8469526  41.5725398  28.6560686  18.7819526  40.5985398  29.3410686
  15.4439526  44.8545398  14.0190686  16.1079526  45.3765398  13.5690686
  15.0779526  45.4475398  14.6760686  16.1759526  41.2775398  22.8180686
  16.3559526  41.7335398  21.9960686  16.8629526  41.5765398  23.4150686
  29.5449526  42.0755398  13.1810686  28.7719526  42.0455398  12.6170686
  29.8879526  42.9625398  13.0700686  14.2979526  46.6735398  40.3690686
  14.4499526  47.2125398  41.1450686  15.1549526  46.6115398  39.9480686
  11.7769526  42.0815398  22.8640686  10.9239526  42.4205398  22.5900686
  12.3209526  42.8615398  22.9710686  22.6609526  42.9725398  33.7250686
  23.2129526  43.6135398  33.2770686  22.3569526  42.3895398  33.0300686
  19.0319526  43.4015398  28.9480686  19.9009526  43.7875398  28.8410686
  18.8559526  43.4625398  29.8870686  16.4809526  44.4685398  24.0770686
  15.5579526  44.2915398  24.2580686  16.6349526  44.0805398  23.2160686
  19.8169526  43.2125398  23.5520686  20.6459526  42.7465398  23.4400686
  19.4599526  42.8715398  24.3730686  18.3679526  47.1225398  19.8670686
  18.4309526  46.4135398  20.5080686  17.7629526  47.7495398  20.2610686
  13.0969526  39.3505398  14.9800686  13.9459526  38.9415398  14.8110686
  13.2509526  40.2855398  14.8480686  16.5019526  47.1915398  17.0810686
  16.9909526  46.9255398  17.8600686  17.1089526  47.7525398  16.5980686
  19.2809526  41.4975398  17.1660686  19.6729526  41.9775398  17.8960686
  19.9159526  40.8105398  16.9610686  10.8829526  44.3995398  29.0630686
  11.6259526  43.8645398  28.7850686  10.1319526  44.0245398  28.6020686
  14.3549526  43.9575398  21.2870686  13.7399526  44.5355398  20.8350686
  14.7309526  43.4165398  20.5930686  11.5799526  42.7855398  19.1280686
  10.9089526  42.1475398  19.3680686  11.8419526  42.5375398  18.2420686
  19.7059526  41.2125398  13.1630686  19.3379526  41.5825398  12.3610686
  20.3649526  41.8495398  13.4410686  22.7289526  45.0825398  19.5040686
  22.7099526  45.0825398  20.4610686  23.6309526  45.3165398  19.2830686
   8.6659526  40.3075398  22.8960686   8.7599526  39.8685398  22.0510686
   8.8709526  41.2245398  22.7150686  17.2329526  47.0145398  13.4630686
  17.8899526  47.0755398  12.7700686  17.6839526  47.3235398  14.2490686
  17.0629526  40.0915398  19.6830686  17.9759526  40.2545398  19.4460686
  17.1059526  39.7255398  20.5660686  11.5599526  45.4615398  31.6120686
  11.4659526  45.1875398  30.6990686  11.5499526  46.4175398  31.5780686
  23.8889526  47.3075398  32.4300686  23.2159526  46.7335398  32.0640686
  24.4739526  46.7185398  32.9060686  24.4239526  39.7855398  27.8890686
  24.2359526  40.6355398  28.2870686  23.6819526  39.2345398  28.1370686
  15.5919526  42.6085398  19.1290686  15.9529526  42.9245398  18.3010686
  16.0709526  41.7985398  19.3060686  11.2619526  46.5105398  17.0750686
  10.6899526  46.8015398  17.7850686  11.4129526  47.2965398  16.5500686
  16.8619526  41.3545398  16.1580686  17.7109526  41.2055398  16.5760686
  16.8899526  40.8255398  15.3610686  20.0819526  44.5495398  31.4220686
  20.3569526  45.4635398  31.3510686  20.5449526  44.2195398  32.1920686
  22.0969526  45.5875398  38.5650686  22.3219526  45.5125398  39.4920686
  21.2399526  45.1675398  38.4910686  36.1609526  40.8385398  24.0970686
  36.2799526  41.1935398  24.9780686  37.0499526  40.6975398  23.7720686
   9.5599526  40.7395398  20.0030686   9.0109526  41.4775398  19.7360686
   8.9719526  39.9845398  19.9840686  15.1099526  39.5215398  24.5800686
  15.2769526  40.2745398  24.0130686  15.6749526  39.6645398  25.3410686
  26.0809526  46.8175398  16.4860686  26.9989526  46.8485398  16.7570686
  25.9349526  45.9055398  16.2370686  20.5339526  39.0345398  15.6420686
  21.3509526  39.0135398  16.1390686  20.8079526  38.9805398  14.7260686
  18.9509526  47.3415398  11.3350686  18.5629526  48.1725398  11.0630686
  19.8949526  47.4965398  11.3090686  21.8219526  43.5005398  17.2530686
  22.3779526  42.7245398  17.1840686  22.3579526  44.1395398  17.7230686
  11.5219526  38.4405398  19.6690686  12.0439526  38.7995398  20.3860686
  10.7979526  39.0585398  19.5660686  35.8919526  45.2225398  25.6340686
  35.6849526  44.8105398  24.7960686  35.0679526  45.6215398  25.9150686
   9.2839526  40.9035398  25.5370686   9.0759526  40.4855398  24.7010686
   9.8489526  41.6405398  25.3020686  27.4439526  39.6625398  24.9110686
  28.3349526  39.5355398  24.5850686  27.4179526  40.5795398  25.1860686
  13.0509526  39.7665398  21.3560686  13.7989526  40.3615398  21.4000686
  12.2919526  40.3205398  21.5400686  25.0539526  43.2485398  10.8510686
  24.1419526  43.5165398  10.9670686  25.2879526  42.8295398  11.6800686
  13.4719526  42.3485398  16.7950686  13.9139526  42.6315398  17.5950686
  13.8669526  42.8785398  16.1020686  17.6229526  43.3075398  21.6020686
  17.5369526  43.9785398  20.9240686  18.4699526  43.4855398  22.0100686
  24.9469526  44.2675398  16.8370686  25.8639526  44.0825398  16.6350686
  24.4579526  43.8775398  16.1130686  31.9109526  45.9005398  19.1270686
  32.0209526  45.2015398  18.4820686  32.5889526  46.5385398  18.9070686
  23.4969526  42.0995398  29.5650686  24.1999526  42.7495398  29.5620686
  23.2869526  41.9775398  30.4910686  18.7349526  46.5975398  34.1240686
  19.0099526  45.9645398  34.7880686  19.0209526  47.4435398  34.4680686
  20.5779526  46.8305398  28.2990686  19.6619526  46.9435398  28.5550686
  20.8079526  47.6505398  27.8620686  12.4659526  44.3215398  15.0570686
  13.0279526  45.0635398  14.8340686  12.2169526  44.4745398  15.9690686
  24.1489526  42.7615398  14.2110686  24.4129526  41.8985398  14.5300686
  23.4229526  42.5835398  13.6120686  16.3899526  43.2195398  27.1960686
  15.5679526  43.2365398  26.7060686  16.1209526  43.1805398  28.1140686
  35.9209526  45.7425398  12.8050686  35.9599526  45.4485398  13.7150686
  36.6299526  45.2675398  12.3700686  19.9219526  44.5665398  36.3730686
  19.3119526  45.2705398  36.5910686  19.3799526  43.9025398  35.9470686
  24.9269526  44.2715398  28.8690686  25.8299526  44.0905398  28.6060686
  24.8759526  45.2265398  28.9120686  12.7539526  46.6455398  28.7690686
  13.3529526  46.3495398  29.4550686  12.2789526  45.8565398  28.5090686
  13.0009526  44.7345398  33.6930686  12.9539526  43.7785398  33.6780686
  12.3479526  45.0175398  33.0540686  19.1699526  40.7585398  36.1720686
  18.9849526  40.8125398  37.1090686  18.7649526  41.5425398  35.8010686
  27.2059526  42.3075398  25.5440686  27.6979526  42.9715398  25.0610686
  26.3539526  42.2765398  25.1090686  12.7859526  45.0315398  38.4820686
  13.3629526  45.2545398  37.7520686  13.3199526  45.1775398  39.2630686
  17.2099526  40.2335398  13.9290686  16.6599526  40.3045398  13.1480686
  18.0639526  40.5645398  13.6510686  14.2449526  45.6105398  36.0580686
  13.7639526  45.4965398  35.2390686  14.3639526  46.5565398  36.1370686
  31.8579526  44.5405398  27.6630686  30.9189526  44.5005398  27.4810686
  32.2719526  44.2115398  26.8650686  18.5129526  39.8845398  32.8810686
  18.8879526  39.7655398  33.7540686  19.2629526  40.0905398  32.3230686
  11.4639526  40.5055398  33.1090686  12.1349526  41.0575398  33.5120686
  10.8439526  41.1245398  32.7250686   8.8649526  39.0965398  39.4530686
   9.6649526  39.5425398  39.7310686   8.1979526  39.7835398  39.4450686
  17.9019526  42.9805398  35.2230686  17.0029526  43.0435398  35.5460686
  17.8119526  42.9345398  34.2710686  14.5009526  46.7175398  33.0560686
  14.0939526  45.8595398  33.1740686  13.9879526  47.1335398  32.3630686
  13.0489526  40.9565398  40.1690686  12.4929526  40.8845398  40.9440686
  12.5649526  40.4985398  39.4820686  36.0239526  38.3755398  37.8850686
  36.3939526  39.1195398  38.3600686  36.5489526  38.3145398  37.0870686
  25.9169526  42.0015398  32.8670686  25.9489526  41.0875398  33.1510686
  26.4269526  42.0185398  32.0570686  21.7479526  40.1145398  34.8450686
  22.3889526  40.0215398  35.5500686  20.9809526  40.5005398  35.2680686
  14.3009526  46.4765398  15.9030686  13.7319526  47.2285398  16.0680686
  15.0589526  46.6195398  16.4690686  37.2059526  46.6355398  21.9390686
  37.2829526  45.7215398  21.6640686  36.3839526  46.9345398  21.5510686
  13.9989526  43.0405398  25.9880686  13.5169526  43.5925398  25.3730686
  13.3719526  42.8555398  26.6870686  22.3409526  46.7495398  35.8500686
  21.6269526  46.1165398  35.9210686  22.8119526  46.6745398  36.6800686
  22.5329526  38.6315398  23.7460686  23.1979526  37.9815398  23.9750686
  22.6779526  39.3505398  24.3600686  12.2049526  42.4765398  37.3900686
  11.2769526  42.6115398  37.1990686  12.4389526  43.2005398  37.9700686
  28.6319526  40.7495398  34.8230686  28.2849526  40.5865398  33.9460686
  28.5329526  39.9145398  35.2800686   7.2569526  47.2785398  30.8880686
   6.9729526  46.4755398  31.3240686   7.0709526  47.9735398  31.5190686
  10.6469526  45.6615398  36.5610686  11.4469526  45.1425398  36.6450686
  10.5009526  45.7255398  35.6170686  35.5229526  39.7875398  28.2890686
  35.4659526  38.8635398  28.5330686  35.4689526  40.2585398  29.1210686
  22.9239526  41.7815398  12.0100686  23.4829526  41.0055398  11.9720686
  22.5789526  41.8725398  11.1220686   7.9649526  41.8885398  34.4770686
   7.6459526  41.0115398  34.2660686   8.7279526  42.0095398  33.9110686
  17.6089526  45.6485398  26.4440686  17.6339526  44.7945398  26.8760686
  17.2309526  45.4705398  25.5830686  22.6479526  42.6595398  36.6320686
  21.9529526  43.3175398  36.6430686  22.8809526  42.5715398  35.7080686
  16.4679526  46.5545398  38.7740686  15.8919526  46.6475398  38.0150686
  17.2769526  46.9965398  38.5170686  15.0369526  45.5675398  30.2530686
  15.0139526  44.6115398  30.2260686  15.8769526  45.7765398  30.6630686
   8.2119526  44.5245398  20.1580686   7.7389526  44.7915398  19.3700686
   9.0109526  45.0515398  20.1490686   9.2579526  43.1475398  22.6070686
   8.7819526  43.4885398  21.8500686   8.9339526  43.6615398  23.3460686
  20.9499526  45.2095398  12.9870686  20.1579526  45.6725398  12.7110686
  20.6409526  44.5645398  13.6230686  20.1809526  43.5965398  15.1810686
  20.7729526  43.5875398  15.9330686  19.4879526  42.9785398  15.4140686
  16.2569526  43.9085398  16.2650686  15.9409526  44.1415398  15.3920686
  16.5089526  42.9885398  16.1920686  19.9459526  40.5225398  20.1250686
  20.7239526  40.0265398  20.3810686  19.7289526  41.0445398  20.8970686
  27.1759526  41.5025398  11.9350686  27.5229526  40.8185398  11.3620686
  26.3149526  41.1785398  12.2000686  35.2669526  40.8925398  30.6680686
  34.4649526  40.6795398  31.1460686  35.5189526  41.7565398  30.9930686
   8.0819526  38.4655398  36.2540686   8.8669526  38.5365398  35.7110686
   8.3319526  38.8595398  37.0900686  17.5229526  39.9145398  26.2390686
  17.6889526  39.9425398  27.1820686  17.7979526  40.7745398  25.9220686
  33.4279526  46.9915398  25.2240686  33.0219526  47.8585398  25.2440686
  32.6899526  46.3815398  25.2170686  20.7339526  38.9135398  12.3640686
  19.9529526  38.6905398  11.8580686  20.7389526  39.8705398  12.3900686
  10.2639526  39.0535398  15.0910686  11.2189526  39.1205398  15.0850686
   9.9679526  39.8785398  15.4750686  20.0409526  39.7755398  23.0520686
  20.6639526  39.0755398  23.2490686  19.1969526  39.4345398  23.3470686
  14.2899526  40.6555398  30.3140686  14.8419526  39.8895398  30.1570686
  13.5389526  40.3145398  30.8010686  34.4429526  38.7805398  23.3500686
  34.5999526  38.1435398  24.0470686  35.0269526  39.5105398  23.5560686
  15.4479526  42.6485398  12.3770686  15.5389526  43.2915398  13.0800686
  14.6269526  42.1945398  12.5710686  10.5309526  44.6515398  12.4220686
  11.0929526  45.3185398  12.0270686  11.0659526  44.2695398  13.1180686
   7.2269526  42.0295398  16.3540686   7.0819526  41.1155398  16.1120686
   7.1629526  42.0375398  17.3090686  26.9939526  38.7615398  36.8320686
  26.3969526  38.5235398  37.5410686  27.3859526  39.5875398  37.1150686
  15.7859526  43.4065398  36.7360686  15.6559526  43.3055398  37.6790686
  15.0569526  43.9575398  36.4500686  12.1449526  39.4705398  38.1340686
  12.3269526  40.2795398  37.6570686  12.0139526  38.8135398  37.4500686
  15.5499526  41.0245398  35.4460686  15.1819526  40.2825398  35.9250686
  15.5589526  41.7395398  36.0820686  33.8609526  42.1355398  33.2440686
  33.8629526  41.3075398  33.7240686  34.4449526  42.7045398  33.7440686
  17.0089526  42.0245398  32.3410686  16.2049526  41.9315398  32.8520686
  17.5989526  41.3605398  32.6970686  17.9349526  40.6615398  38.6460686
  17.0549526  40.4625398  38.3260686  17.8109526  40.8805398  39.5690686
  22.9689526  40.5745398  32.2160686  22.6049526  40.4265398  33.0890686
  23.8729526  40.2665398  32.2780686  21.6249526  41.8275398  39.2540686
  21.2619526  40.9585398  39.0780686  22.1439526  42.0315398  38.4760686
  20.1549526  40.0245398  30.5170686  21.0549526  40.0745398  30.8400686
  20.0299526  39.1015398  30.2970686  15.3429526  39.7375398  38.6600686
  14.6859526  39.8785398  39.3420686  15.2789526  38.8035398  38.4560686
  25.5769526  46.4985398  12.1240686  26.2899526  46.8525398  12.6550686
  25.1409526  47.2705398  11.7620686  32.1839526  41.4835398  35.9210686
  31.8499526  41.1645398  35.0830686  32.7269526  40.7675398  36.2510686
  16.1759526  39.6465398  11.6920686  15.4919526  38.9765398  11.6680686
  15.7629526  40.4245398  11.3190686  12.5919526  38.6465398  31.4140686
  12.2419526  39.2735398  32.0470686  12.4539526  37.7915398  31.8230686
  19.3329526  44.8165398  18.3940686  20.1539526  44.3895398  18.1510686
  18.6669526  44.3725398  17.8690686  17.8639526  44.6815398  40.4830686
  18.2109526  45.3595398  41.0620686  17.2439526  45.1425398  39.9170686
  26.4669526  46.0165398  23.3090686  26.6539526  46.4495398  22.4760686
  26.0699526  46.6985398  23.8510686  34.5689526  42.4645398  21.1700686
  34.4269526  42.7645398  20.2730686  34.8039526  41.5405398  21.0810686
  30.9319526  46.3815398  21.6500686  30.3549526  46.9555398  21.1470686
  31.5929526  46.0945398  21.0200686  31.2299526  39.8205398  21.4590686
  30.3139526  39.9395398  21.7090686  31.1999526  39.2125398  20.7210686
   7.1509526  45.1985398  28.1000686   7.8689526  45.8025398  28.2890686
   6.8079526  45.4915398  27.2560686  25.7129526  43.3605398  23.0250686
  26.2829526  42.9535398  22.3720686  26.0869526  44.2315398  23.1610686
  34.8509526  41.2555398  14.4660686  35.3059526  40.4885398  14.1180686
  34.1309526  41.4055398  13.8540686  22.9599526  45.4875398  11.1770686
  22.2929526  45.3225398  11.8440686  23.5469526  46.1275398  11.5780686
  33.0299526  43.9065398  25.2850686  33.2489526  44.3095398  24.4450686
  32.8529526  42.9905398  25.0730686  32.5409526  45.4405398  16.0160686
  31.9759526  44.6775398  15.8950686  32.8539526  45.6495398  15.1350686
  23.7979526  45.4765398  14.4030686  24.2869526  45.9855398  13.7560686
  23.8749526  44.5705398  14.1030686  12.7059526  42.3865398  28.4790686
  13.2199526  41.8855398  29.1110686  12.1999526  41.7265398  28.0040686
  32.3869526  44.0875398  30.2560686  33.2619526  43.7525398  30.0600686
  32.0119526  44.2945398  29.4000686  17.5979526  45.6055398  31.4310686
  18.4379526  45.2635398  31.1230686  17.7189526  45.7255398  32.3730686
  36.6229526  39.1705398  13.8930686  37.2859526  39.2335398  13.2060686
  36.2329526  38.3045398  13.7710686   7.6489526  41.9075398  12.6230686
   7.9939526  42.4125398  11.8870686   6.7099526  41.8405398  12.4490686
  25.1069526  45.4775398  37.7360686  24.4159526  45.0315398  38.2250686
  25.1899526  44.9755398  36.9250686  33.8329526  42.0845398  28.3790686
  33.5559526  42.5535398  27.5920686  33.1369526  41.4475398  28.5370686
  26.9859526  46.2535398  39.7510686  26.5459526  45.9885398  38.9430686
  26.3639526  46.0395398  40.4450686  28.3569526  39.2265398  19.1000686
  28.4899526  39.5705398  19.9830686  27.6819526  38.5555398  19.2040686
  31.2739526  42.9005398  39.7920686  31.0099526  43.4925398  39.0880686
  30.5249526  42.8885398  40.3890686  34.1109526  39.0855398  33.8730686
  33.2019526  38.8435398  33.6940686  34.5489526  38.2545398  34.0570686
  30.4529526  43.5155398  22.3320686  30.8549526  44.3515398  22.0940686
  31.1939526  42.9355398  22.5100686  32.0659526  39.4995398  30.6300686
  31.7629526  39.8675398  29.8000686  31.5659526  39.9685398  31.2980686
  33.4119526  45.9635398  34.4590686  33.3919526  45.2235398  35.0650686
  34.1949526  46.4555398  34.7070686   7.1209526  44.8055398  17.8060686
   6.5429526  44.3645398  17.1820686   7.7989526  45.2075398  17.2620686
  12.5009526  40.1095398  24.6180686  13.4429526  40.0165398  24.4710686
  12.2099526  40.7155398  23.9370686  19.1309526  42.2595398  10.8260686
  18.5389526  42.9825398  10.6190686  19.8059526  42.3005398  10.1480686
  31.5499526  40.5575398  28.0830686  31.7879526  40.6545398  27.1610686
  31.0099526  39.7675398  28.1100686  15.6399526  42.8695398  29.9450686
  16.2469526  42.5665398  30.6210686  14.9049526  42.2575398  29.9920686
  34.7639526  45.7005398  39.0100686  35.2829526  46.4745398  38.7900686
  34.6039526  45.2705398  38.1700686  28.3239526  40.2005398  21.5670686
  28.1469526  40.2185398  22.5070686  28.1879526  41.1035398  21.2800686
  29.2069526  44.6945398  26.9780686  28.6659526  45.2885398  27.4980686
  28.7709526  44.6545398  26.1270686  35.0849526  40.0145398  19.8130686
  34.7589526  39.2445398  20.2780686  34.6759526  39.9645398  18.9490686
   9.7859526  42.5605398  32.3880686   9.3959526  42.0575398  31.6730686
  10.0899526  43.3685398  31.9730686  19.2299526  45.9265398  22.7390686
  20.1699526  45.9015398  22.5600686  19.0569526  45.1205398  23.2250686
   9.0569526  46.7225398  28.9440686   9.9079526  47.1265398  29.1120686
   8.4989526  47.0325398  29.6570686  34.5939526  44.4285398  23.1930686
  34.7249526  43.6035398  22.7250686  34.5229526  45.0875398  22.5020686
  13.1559526  41.9755398  13.8520686  12.8029526  42.8395398  14.0660686
  12.4659526  41.5565398  13.3370686  27.2529526  41.7195398  17.6910686
  27.8789526  41.1535398  18.1440686  26.5189526  41.8005398  18.2990686
  29.2549526  46.2385398  19.1520686  30.1689526  45.9545398  19.1200686
  29.2179526  46.9945398  18.5660686  34.2009526  46.3935398  21.2760686
  33.7599526  47.1305398  21.6990686  34.3759526  46.6985398  20.3850686
  31.5209526  46.7035398  10.6830686  32.0899526  47.3035398  10.2010686
  32.0399526  46.4395398  11.4430686  27.5359526  44.1955398  16.4680686
  27.7799526  43.4095398  16.9560686  28.3709526  44.5705398  16.1850686
  22.1609526  41.5805398  22.4900686  23.0209526  41.1725398  22.3870686
  21.6669526  40.9665398  23.0340686   8.3449526  45.2815398  24.6800686
   7.4569526  45.2085398  25.0270686   8.6379526  46.1515398  24.9500686
  31.8779526  40.5855398  16.4160686  31.2739526  39.8425398  16.4290686
  32.7479526  40.1865398  16.4210686  31.5949526  42.2565398  18.8540686
  31.7559526  41.5965398  18.1800686  32.4589526  42.4335398  19.2280686
  28.5109526  44.4295398  24.2430686  27.8349526  44.9245398  23.7800686
  29.1289526  44.1705398  23.5590686  34.3279526  43.4405398  18.5780686
  34.4809526  44.3615398  18.7910686  34.6509526  43.3455398  17.6820686
  30.3489526  38.9395398  24.7420686  30.7939526  38.2325398  24.2750686
  31.0389526  39.5755398  24.9290686  23.3519526  44.1335398  22.3220686
  24.2459526  43.8235398  22.4620686  22.8169526  43.3405398  22.3430686
  32.3509526  40.9925398  25.6670686  33.2499526  40.6685398  25.7310686
  32.2029526  41.1055398  24.7280686  30.1109526  46.9045398  14.0220686
  30.3049526  47.8405398  13.9670686  30.5279526  46.6205398  14.8360686
  25.4869526  40.2375398  15.0240686  25.2619526  39.5025398  15.5940686
  26.4429526  40.2775398  15.0510686  26.9999526  46.8375398  20.5830686
  26.9999526  47.7215398  20.2160686  27.7039526  46.3855398  20.1200686
  25.6349526  44.7055398  19.4630686  25.7769526  44.7755398  18.5190686
  25.9489526  45.5375398  19.8160686  24.6729526  40.5875398  22.2160686
  24.6259526  40.3955398  23.1530686  24.5319526  39.7425398  21.7910686
  30.1779526  44.5155398  12.8030686  30.2079526  45.4335398  13.0720686
  29.6669526  44.5185398  11.9940686  30.1829526  43.0515398  37.1340686
  30.8829526  42.6235398  36.6420686  29.5459526  43.3115398  36.4690686
  37.0899526  41.7825398  19.2520686  36.3779526  41.1575398  19.3890686
  36.7139526  42.6305398  19.4860686  15.0129526  39.3995398  17.5780686
  15.4759526  39.8745398  18.2680686  14.7019526  40.0825398  16.9840686
  35.4559526  43.9375398  29.8180686  35.8939526  44.4635398  29.1490686
  35.1499526  43.1605398  29.3500686  20.7959526  39.2785398  39.3110686
  19.8989526  39.1455398  39.6160686  21.3349526  39.1625398  40.0940686
  28.0319526  42.8545398  28.2720686  27.6719526  42.3765398  27.5250686
  28.6139526  43.5065398  27.8810686  31.2029526  40.2055398  38.6320686
  31.8709526  39.9005398  38.0180686  31.4959526  41.0795398  38.8900686
   7.7729526  42.9515398  37.0970686   7.9119526  42.8055398  36.1620686
   7.9669526  43.8795398  37.2270686  28.2839526  43.4705398  34.9250686
  27.4399526  43.7345398  35.2900686  28.3459526  42.5345398  35.1150686
  33.6339526  44.0495398  36.4560686  32.9109526  43.4365398  36.3230686
  34.4129526  43.5645398  36.1830686   9.7389526  45.5425398  33.8470686
  10.0059526  46.3545398  33.4150686   9.1939526  45.0945398  33.1990686
  34.0989526  46.2245398  31.4270686  34.2539526  46.0375398  32.3530686
  33.2649526  45.7955398  31.2330686  29.2769526  45.8195398  33.7510686
  29.7229526  45.7005398  32.9130686  29.0749526  44.9305398  34.0440686
   8.8039526  43.2185398  14.7440686   8.4829526  42.8015398  13.9440686
   8.1759526  42.9595398  15.4180686  34.9789526  41.4095398  11.3060686
  34.2289526  40.8365398  11.4670686  34.6609526  42.2865398  11.5170686
  24.6789526  44.4155398  32.3820686  25.0169526  43.5215398  32.4320686
  25.3299526  44.8905398  31.8650686  25.7229526  42.2635398  38.2160686
  26.5359526  41.7655398  38.1310686  25.6759526  42.4905398  39.1450686
  27.1579526  45.0725398  31.1940686  27.5009526  44.2105398  30.9590686
  27.9369526  45.6075398  31.3460686  36.5039526  41.6365398  26.5890686
  36.3269526  40.8555398  27.1140686  35.9969526  42.3295398  27.0130686
  24.9699526  46.0955398  34.6390686  24.8479526  45.1465398  34.6090686
  24.1059526  46.4415398  34.8650686  36.9399526  41.0645398  39.2250686
  36.4019526  41.3945398  39.9440686  36.8099526  41.6965398  38.5180686
  31.0909526  43.1775398  15.5880686  30.9749526  42.9935398  14.6560686
  31.3379526  42.3355398  15.9700686  35.7879526  43.4515398  34.4900686
  36.3189526  44.1355398  34.8990686  36.3609526  42.6855398  34.4650686
   9.6069526  42.2615398  39.5110686   9.4299526  43.2005398  39.5540686
   9.0949526  41.9535398  38.7630686  30.1869526  45.5645398  31.2490686
  30.6619526  46.2605398  30.7950686  30.6729526  44.7665398  31.0390686
   7.2109526  45.6445398  35.5530686   8.0909526  45.7785398  35.1990686
   6.7679526  46.4825398  35.4180686  28.3729526  42.6835398  20.7540686
  29.2609526  42.9015398  21.0370686  28.0469526  43.4875398  20.3480686
  13.1419526  44.5095398  23.5070686  13.8519526  44.3965398  22.8750686
  13.0699526  45.4565398  23.6210686  31.2039526  42.1865398  31.6400686
  31.6779526  42.9465398  31.3010686  31.6319526  41.9895398  32.4730686
  20.8319526  44.9235398  26.1560686  21.3349526  45.3185398  25.4440686
  20.5179526  45.6685398  26.6690686  24.3059526  40.7125398  24.7800686
  24.5469526  40.1545398  25.5200686  24.0859526  41.5555398  25.1770686
  13.2659526  42.1165398  34.3780686  14.1219526  41.9045398  34.7510686
  12.7169526  42.3155398  35.1360686  34.5639526  46.7665398  17.8940686
  34.1689526  47.5265398  17.4660686  34.5429526  46.0795398  17.2280686
  11.7289526  46.6765398  10.8780686  11.6399526  47.6125398  11.0570686
  12.6699526  46.5105398  10.9330686  10.6689526  43.7645398  25.2400686
  11.3769526  44.2175398  24.7810686   9.9369526  44.3815398  25.2210686
  21.4579526  47.0655398  31.0080686  21.5169526  48.0175398  31.0850686
  21.4879526  46.8985398  30.0660686   8.7999526  43.0295398  27.8790686
   8.3579526  42.5835398  27.1560686   8.1709526  43.6875398  28.1750686
  10.8759526  41.6095398  16.0580686  11.8299526  41.6865398  16.0910686
  10.5929526  42.3545398  15.5280686  26.6439526  38.5295398  27.7540686
  26.9419526  38.8195398  26.8920686  25.7699526  38.9075398  27.8460686
  23.3269526  41.0635398  17.5530686  23.5879526  40.1875398  17.2700686
  24.1469526  41.4905398  17.7990686  24.9449526  42.1195398  19.3400686
  25.1119526  43.0495398  19.4960686  24.7849526  41.7545398  20.2100686
  28.7889526  38.4825398  29.9230686  29.4009526  38.2685398  29.2180686
  28.0459526  38.8915398  29.4790686  28.2039526  40.5815398  15.2560686
  28.2009526  41.1305398  16.0410686  28.6509526  41.1105398  14.5950686
  32.3189526  41.7175398  22.9270686  31.9459526  41.1105398  22.2880686
  33.1749526  41.9495398  22.5670686  32.6059526  40.6115398  12.7910686
  31.7869526  41.1045398  12.7460686  32.3689526  39.7895398  13.2200686
  18.8849526  42.6515398  25.9830686  18.1479526  42.8575398  26.5590686
  19.5869526  43.2325398  26.2750686  23.1369526  43.0345398  26.2880686
  23.1709526  42.9805398  27.2430686  22.5429526  43.7645398  26.1110686
  34.4469526  39.6505398  16.7840686  34.7209526  40.1335398  16.0040686
  35.1039526  38.9615398  16.8830686   7.2189526  38.7495398  16.6610686
   7.2239526  38.6775398  15.7060686   7.7639526  38.0215398  16.9590686
  24.8929526  39.9685398  12.5320686  24.9079526  39.7785398  13.4700686
  25.0859526  39.1285398  12.1140686  14.9359526  43.1245398  39.3480686
  15.3109526  43.2095398  40.2240686  14.4529526  42.2985398  39.3720686
  28.1819526  41.3175398  38.2350686  28.7189526  40.7365398  38.7740686
  28.7959526  41.9735398  37.9040686  36.8289526  39.7205398  33.2440686
  37.0619526  39.0685398  32.5830686  35.8869526  39.6055398  33.3730686
  33.7179526  43.6395398  40.6730686  32.8939526  43.2425398  40.3910686
  33.7129526  44.5095398  40.2740686  33.2069526  39.1475398  37.0560686
  32.9769526  38.5585398  36.3380686  33.9999526  38.7675398  37.4340686
  10.8859526  41.1105398  12.0530686  10.2489526  41.5685398  11.5040686
  10.3589526  40.5245398  12.5950686  27.8279526  42.3725398  30.7640686
  27.9529526  42.4225398  29.8170686  28.6989526  42.5235398  31.1300686
  23.9259526  39.6805398  37.6070686  24.5659526  39.0655398  37.9670686
  24.2129526  40.5375398  37.9220686  31.0479526  40.1375398  33.8790686
  30.1739526  40.4165398  34.1540686  31.0909526  39.2115398  34.1180686
  36.4479526  44.9365398  32.2590686  36.0589526  44.6415398  31.4360686
  36.1159526  44.3235398  32.9150686  29.4059526  39.0735398  10.5370686
  29.9389526  38.7965398  11.2820686  30.0419526  39.2875398   9.8540686
   9.1539526  40.9125398  30.1570686   9.1259526  41.5715398  29.4630686
   8.4819526  40.2765398  29.9120686   7.9589526  44.6875398  11.4220686
   8.2879526  45.1415398  10.6460686   8.7029526  44.6685398  12.0230686
  12.9689526  45.4395398  49.2180686  12.5039526  44.6425398  48.9650686
  12.9929526  45.9665398  48.4190686  35.1269526  44.0335398  46.0660686
  34.1869526  44.1535398  45.9300686  35.3059526  43.1495398  45.7470686
   8.6789526  46.3385398  45.6550686   9.0029526  45.5505398  45.2200686
   9.4649526  46.7645398  45.9980686  22.2449526  39.1505398  49.3890686
  21.8549526  39.8985398  48.9370686  22.1799526  38.4305398  48.7620686
  15.4439526  44.8545398  44.0190686  16.1079526  45.3765398  43.5690686
  15.0779526  45.4475398  44.6760686  29.5449526  42.0755398  43.1810686
  28.7719526  42.0455398  42.6170686  29.8879526  42.9625398  43.0700686
  13.0969526  39.3505398  44.9800686  13.9459526  38.9415398  44.8110686
  13.2509526  40.2855398  44.8480686  16.5019526  47.1915398  47.0810686
  16.9909526  46.9255398  47.8600686  17.1089526  47.7525398  46.5980686
  19.2809526  41.4975398  47.1660686  19.6729526  41.9775398  47.8960686
  19.9159526  40.8105398  46.9610686  11.5799526  42.7855398  49.1280686
  10.9089526  42.1475398  49.3680686  11.8419526  42.5375398  48.2420686
  19.7059526  41.2125398  43.1630686  19.3379526  41.5825398  42.3610686
  20.3649526  41.8495398  43.4410686  17.2329526  47.0145398  43.4630686
  17.8899526  47.0755398  42.7700686  17.6839526  47.3235398  44.2490686
  15.5919526  42.6085398  49.1290686  15.9529526  42.9245398  48.3010686
  16.0709526  41.7985398  49.3060686  11.2619526  46.5105398  47.0750686
  10.6899526  46.8015398  47.7850686  11.4129526  47.2965398  46.5500686
  16.8619526  41.3545398  46.1580686  17.7109526  41.2055398  46.5760686
  16.8899526  40.8255398  45.3610686  26.0809526  46.8175398  46.4860686
  26.9989526  46.8485398  46.7570686  25.9349526  45.9055398  46.2370686
  20.5339526  39.0345398  45.6420686  21.3509526  39.0135398  46.1390686
  20.8079526  38.9805398  44.7260686  18.9509526  47.3415398  41.3350686
  18.5629526  48.1725398  41.0630686  19.8949526  47.4965398  41.3090686
  21.8219526  43.5005398  47.2530686  22.3779526  42.7245398  47.1840686
  22.3579526  44.1395398  47.7230686  25.0539526  43.2485398  40.8510686
  24.1419526  43.5165398  40.9670686  25.2879526  42.8295398  41.6800686
  13.4719526  42.3485398  46.7950686  13.9139526  42.6315398  47.5950686
  13.8669526  42.8785398  46.1020686  24.9469526  44.2675398  46.8370686
  25.8639526  44.0825398  46.6350686  24.4579526  43.8775398  46.1130686
  12.4659526  44.3215398  45.0570686  13.0279526  45.0635398  44.8340686
  12.2169526  44.4745398  45.9690686  24.1489526  42.7615398  44.2110686
  24.4129526  41.8985398  44.5300686  23.4229526  42.5835398  43.6120686
  35.9209526  45.7425398  42.8050686  35.9599526  45.4485398  43.7150686
  36.6299526  45.2675398  42.3700686  17.2099526  40.2335398  43.9290686
  16.6599526  40.3045398  43.1480686  18.0639526  40.5645398  43.6510686
  14.3009526  46.4765398  45.9030686  13.7319526  47.2285398  46.0680686
  15.0589526  46.6195398  46.4690686  22.9239526  41.7815398  42.0100686
  23.4829526  41.0055398  41.9720686  22.5789526  41.8725398  41.1220686
  20.9499526  45.2095398  42.9870686  20.1579526  45.6725398  42.7110686
  20.6409526  44.5645398  43.6230686  20.1809526  43.5965398  45.1810686
  20.7729526  43.5875398  45.9330686  19.4879526  42.9785398  45.4140686
  16.2569526  43.9085398  46.2650686  15.9409526  44.1415398  45.3920686
  16.5089526  42.9885398  46.1920686  27.1759526  41.5025398  41.9350686
  27.5229526  40.8185398  41.3620686  26.3149526  41.1785398  42.2000686
  20.7339526  38.9135398  42.3640686  19.9529526  38.6905398  41.8580686
  20.7389526  39.8705398  42.3900686  10.2639526  39.0535398  45.0910686
  11.2189526  39.1205398  45.0850686   9.9679526  39.8785398  45.4750686
  15.4479526  42.6485398  42.3770686  15.5389526  43.2915398  43.0800686
  14.6269526  42.1945398  42.5710686  10.5309526  44.6515398  42.4220686
  11.0929526  45.3185398  42.0270686  11.0659526  44.2695398  43.1180686
   7.2269526  42.0295398  46.3540686   7.0819526  41.1155398  46.1120686
   7.1629526  42.0375398  47.3090686  25.5769526  46.4985398  42.1240686
  26.2899526  46.8525398  42.6550686  25.1409526  47.2705398  41.7620686
  16.1759526  39.6465398  41.6920686  15.4919526  38.9765398  41.6680686
  15.7629526  40.4245398  41.3190686  21.7609526  46.2665398  45.8720686
  22.4529526  46.1455398  45.2220686  21.4899526  45.3775398  46.1010686
  19.3329526  44.8165398  48.3940686  20.1539526  44.3895398  48.1510686
  18.6669526  44.3725398  47.8690686  34.8509526  41.2555398  44.4660686
  35.3059526  40.4885398  44.1180686  34.1309526  41.4055398  43.8540686
  22.9599526  45.4875398  41.1770686  22.2929526  45.3225398  41.8440686
  23.5469526  46.1275398  41.5780686  32.5409526  45.4405398  46.0160686
  31.9759526  44.6775398  45.8950686  32.8539526  45.6495398  45.1350686
  23.7979526  45.4765398  44.4030686  24.2869526  45.9855398  43.7560686
  23.8749526  44.5705398  44.1030686  36.6229526  39.1705398  43.8930686
  37.2859526  39.2335398  43.2060686  36.2329526  38.3045398  43.7710686
   7.6489526  41.9075398  42.6230686   7.9939526  42.4125398  41.8870686
   6.7099526  41.8405398  42.4490686   7.1209526  44.8055398  47.8060686
   6.5429526  44.3645398  47.1820686   7.7989526  45.2075398  47.2620686
  19.1309526  42.2595398  40.8260686  18.5389526  42.9825398  40.6190686
  19.8059526  42.3005398  40.1480686  13.1559526  41.9755398  43.8520686
  12.8029526  42.8395398  44.0660686  12.4659526  41.5565398  43.3370686
  27.2529526  41.7195398  47.6910686  27.8789526  41.1535398  48.1440686
  26.5189526  41.8005398  48.2990686  29.2549526  46.2385398  49.1520686
  30.1689526  45.9545398  49.1200686  29.2179526  46.9945398  48.5660686
  31.5209526  46.7035398  40.6830686  32.0899526  47.3035398  40.2010686
  32.0399526  46.4395398  41.4430686  27.5359526  44.1955398  46.4680686
  27.7799526  43.4095398  46.9560686  28.3709526  44.5705398  46.1850686
  31.8779526  40.5855398  46.4160686  31.2739526  39.8425398  46.4290686
  32.7479526  40.1865398  46.4210686  31.5949526  42.2565398  48.8540686
  31.7559526  41.5965398  48.1800686  32.4589526  42.4335398  49.2280686
  34.3279526  43.4405398  48.5780686  34.4809526  44.3615398  48.7910686
  34.6509526  43.3455398  47.6820686  30.1109526  46.9045398  44.0220686
  30.3049526  47.8405398  43.9670686  30.5279526  46.6205398  44.8360686
  25.4869526  40.2375398  45.0240686  25.2619526  39.5025398  45.5940686
  26.4429526  40.2775398  45.0510686  30.1779526  44.5155398  42.8030686
  30.2079526  45.4335398  43.0720686  29.6669526  44.5185398  41.9940686
  37.0899526  41.7825398  49.2520686  36.3779526  41.1575398  49.3890686
  36.7139526  42.6305398  49.4860686  15.0129526  39.3995398  47.5780686
  15.4759526  39.8745398  48.2680686  14.7019526  40.0825398  46.9840686
  33.1529526  44.6725398  43.3900686  33.8659526  44.9465398  42.8130686
  32.5659526  44.1715398  42.8240686   8.8039526  43.2185398  44.7440686
   8.4829526  42.8015398  43.9440686   8.1759526  42.9595398  45.4180686
  34.9789526  41.4095398  41.3060686  34.2289526  40.8365398  41.4670686
  34.6609526  42.2865398  41.5170686  31.0909526  43.1775398  45.5880686
  30.9749526  42.9935398  44.6560686  31.3379526  42.3355398  45.9700686
  34.5639526  46.7665398  47.8940686  34.1689526  47.5265398  47.4660686
  34.5429526  46.0795398  47.2280686  11.7289526  46.6765398  40.8780686
  11.6399526  47.6125398  41.0570686  12.6699526  46.5105398  40.9330686
  10.8759526  41.6095398  46.0580686  11.8299526  41.6865398  46.0910686
  10.5929526  42.3545398  45.5280686  23.3269526  41.0635398  47.5530686
  23.5879526  40.1875398  47.2700686  24.1469526  41.4905398  47.7990686
  28.2039526  40.5815398  45.2560686  28.2009526  41.1305398  46.0410686
  28.6509526  41.1105398  44.5950686  32.6059526  40.6115398  42.7910686
  31.7869526  41.1045398  42.7460686  32.3689526  39.7895398  43.2200686
  34.4469526  39.6505398  46.7840686  34.7209526  40.1335398  46.0040686
  35.1039526  38.9615398  46.8830686   7.2189526  38.7495398  46.6610686
   7.2239526  38.6775398  45.7060686   7.7639526  38.0215398  46.9590686
  24.8929526  39.9685398  42.5320686  24.9079526  39.7785398  43.4700686
  25.0859526  39.1285398  42.1140686  10.8859526  41.1105398  42.0530686
  10.2489526  41.5685398  41.5040686  10.3589526  40.5245398  42.5950686
  29.4059526  39.0735398  40.5370686  29.9389526  38.7965398  41.2820686
  30.0419526  39.2875398  39.8540686   7.9589526  44.6875398  41.4220686
   8.2879526  45.1415398  40.6460686   8.7029526  44.6685398  42.0230686
  41.2109526  -7.8544602  -5.7219314  41.1109526  -7.1054602  -5.1349314
  41.7559526  -8.4714602  -5.2339314  44.0539526   5.7445398 -15.3499314
  43.3489526   5.1875398 -15.0199314  44.0789526   6.4835398 -14.7419314
  43.8009526  -2.8194602   1.9870686  43.4739526  -2.1644602   2.6050686
  44.7429526  -2.6564602   1.9420686  42.9689526 -14.5604602 -10.7819314
  42.5039526 -15.3574602 -11.0349314  42.9929526 -14.0334602 -11.5809314
  37.7259526  -7.4564602 -10.9469314  36.9029526  -7.1364602 -11.3189314
  37.9989526  -8.1574602 -11.5379314  42.7049526  -7.8434602 -10.5329314
  42.8549526  -7.8124602  -9.5879314  41.8439526  -7.4434602 -10.6529314
  39.6229526 -14.3664602   9.3640686  40.3639526 -13.9544602   9.8100686
  39.9529526 -14.5694602   8.4890686  39.4789526  -0.7594602 -15.6369314
  40.2719526  -0.2234602 -15.6359314  39.7629526  -1.6094602 -15.3009314
  41.5219526   7.2565398   6.7510686  41.9879526   6.5795398   6.2600686
  40.8739526   7.5975398   6.1340686  38.6789526 -13.6614602 -14.3449314
  39.0029526 -14.4494602 -14.7799314  39.4649526 -13.2354602 -14.0019314
  41.4679526 -19.8344602  -2.8449314  40.5369526 -19.6974602  -3.0189314
  41.8579526 -19.9584602  -3.7099314  43.9649526   5.3965398  -9.7249314
  44.1819526   6.2795398  -9.4269314  44.1069526   5.4205398 -10.6709314
  45.4439526 -15.1454602 -15.9809314  46.1079526 -14.6234602 -16.4309314
  45.0779526 -14.5524602 -15.3239314  44.8839526  -7.7594602 -12.3909314
  44.2489526  -8.0204602 -11.7239314  45.4549526  -8.5214602 -12.4899314
  44.7389526  -4.2284602  -6.9809314  44.2229526  -3.6354602  -6.4339314
  44.7039526  -5.0684602  -6.5229314  44.2979526 -13.3264602  10.3690686
  44.4499526 -12.7874602  11.1450686  45.1549526 -13.3884602   9.9480686
  41.7769526 -17.9184602  -7.1359314  40.9239526 -17.5794602  -7.4099314
  42.3209526 -17.1384602  -7.0289314  42.0069526  -7.4494602 -13.4289314
  42.3329526  -8.2484602 -13.0139314  41.4859526  -7.0214602 -12.7499314
  40.0899526   2.1915398 -14.4899314  39.6499526   1.6015398 -13.8779314
  40.8809526   1.7205398 -14.7519314  43.5489526  -2.4824602  -5.2719314
  42.8869526  -2.5734602  -4.5869314  44.1799526  -1.8584602  -4.9139314
  44.4669526   7.2825398 -17.8029314  43.7709526   6.7575398 -18.1979314
  44.3769526   7.1305398 -16.8619314  43.0969526 -20.6494602 -15.0199314
  43.9459526 -21.0584602 -15.1889314  43.2509526 -19.7144602 -15.1519314
  45.7529526   1.5555398 -13.7559314  46.2539526   1.1735398 -13.0349314
  46.3949526   1.6805398 -14.4549314  39.8539526 -11.2084602  -3.5439314
  39.2879526 -10.7364602  -4.1549314  39.2479526 -11.6614602  -2.9569314
  40.8829526 -15.6004602  -0.9369314  41.6259526 -16.1354602  -1.2149314
  40.1319526 -15.9754602  -1.3979314  44.3549526 -16.0424602  -8.7129314
  43.7399526 -15.4644602  -9.1649314  44.7309526 -16.5834602  -9.4069314
  41.5799526 -17.2144602 -10.8719314  40.9089526 -17.8524602 -10.6319314
  41.8419526 -17.4624602 -11.7579314  41.0859526 -11.4974602  -0.2469314
  41.7959526 -12.0404602  -0.5909314  41.2259526 -10.6384602  -0.6459314
  43.2879526   7.2565398 -12.0909314  42.7129526   7.7925398 -11.5459314
  44.0289526   7.8275398 -12.2939314  44.4469526  -6.5814602  -5.3769314
  43.8309526  -6.8684602  -4.7029314  44.8019526  -7.3944602  -5.7379314
  38.6659526 -19.6924602  -7.1039314  38.7599526 -20.1314602  -7.9489314
  38.8709526 -18.7754602  -7.2849314  42.9679526 -10.3954602   8.8700686
  43.7749526 -10.3204602   9.3780686  42.2859526 -10.5534602   9.5230686
  41.7969526  -6.1094602   3.6450686  41.6539526  -5.6294602   2.8290686
  42.0609526  -5.4384602   4.2740686  40.0049526  -5.0744602  -5.1199314
  40.6179526  -4.4244602  -4.7779314  39.3349526  -5.1544602  -4.4409314
  42.1559526  -9.3314602  -1.3379314  42.9219526  -9.8134602  -1.6499314
  41.7789526  -8.9434602  -2.1279314  41.5599526 -14.5384602   1.6120686
  41.4659526 -14.8124602   0.6990686  41.5499526 -13.5824602   1.5780686
  41.4469526   3.1195398  -6.3499314  42.2719526   3.5515398  -6.5729314
  40.9639526   3.7705398  -5.8419314  43.1759526  -6.6714602  -8.0399314
  42.5569526  -6.1524602  -8.5529314  43.0859526  -6.3374602  -7.1469314
  42.9879526   4.6435398  -3.6989314  42.0669526   4.8715398  -3.8239314
  43.3459526   4.5975398  -4.5849314  41.2619526 -13.4894602 -12.9249314
  40.6899526 -13.1984602 -12.2149314  41.4129526 -12.7034602 -13.4499314
  40.6369526   7.6655398  -5.0949314  40.5429526   7.2015398  -5.9269314
  41.1679526   8.4335398  -5.3069314  44.7359526  -5.9404602 -18.9219314
  45.2279526  -6.6234602 -18.4669314  45.2399526  -5.1404602 -18.7719314
  42.8319526  -9.9794602  -7.1969314  42.5999526  -9.7604602  -6.2939314
  43.6749526  -9.5494602  -7.3379314  38.2899526  -3.7174602   9.9660686
  38.9949526  -3.4314602  10.5460686  38.7369526  -4.1594602   9.2450686
  39.5659526  -8.0964602  -7.9659314  40.0569526  -8.2114602  -7.1519314
  39.4829526  -7.1474602  -8.0629314  41.1709526 -10.5574602  -9.2919314
  40.4479526  -9.9464602  -9.1549314  41.7769526 -10.3774602  -8.5719314
  39.5599526 -19.2604602  -9.9969314  39.0109526 -18.5224602 -10.2639314
  38.9719526 -20.0154602 -10.0159314  40.1099526  -5.4394602  -7.8869314
  40.0649526  -5.3694602  -6.9329314  40.1989526  -4.5354602  -8.1899314
  45.1349526  -3.2454602  -2.2129314  44.9029526  -3.9524602  -1.6109314
  45.3319526  -3.6884602  -3.0379314  45.1099526 -20.4784602  -5.4199314
  45.2769526 -19.7254602  -5.9869314  45.6749526 -20.3354602  -4.6589314
  40.9459526   6.7375398 -13.3729314  40.6229526   7.5925398 -13.6579314
  41.8299526   6.9095398 -13.0509314  39.2129526   0.6015398  -1.6229314
  39.9319526   0.2795398  -2.1649314  39.3969526   1.5335398  -1.5079314
  42.8929526  -5.4514602 -15.1709314  43.6849526  -5.8874602 -15.4849314
  42.7079526  -5.8684602 -14.3289314  43.8249526 -11.1204602  -2.5709314
  44.7609526 -11.3174602  -2.6089314  43.4209526 -11.9314602  -2.2619314
  45.9779526  -1.1134602 -17.8839314  45.3729526  -1.7514602 -17.5059314
  45.8619526  -0.3274602 -17.3499314  45.2209526  -4.2074602  -9.7989314
  45.2019526  -3.2894602 -10.0719314  45.0869526  -4.1784602  -8.8519314
  45.8719526  -6.7024602  -8.9709314  44.9889526  -6.8574602  -8.6339314
  45.8199526  -5.8434602  -9.3909314  44.8179526  -8.2774602   7.2850686
  44.5899526  -8.7944602   8.0580686  45.5159526  -7.6944602   7.5820686
  41.5219526 -21.5594602 -10.3309314  42.0439526 -21.2004602  -9.6139314
  40.7979526 -20.9414602 -10.4339314  40.2879526  -6.2424602 -11.4879314
  39.6899526  -6.1154602 -12.2239314  39.8159526  -6.8224602 -10.8919314
  43.4409526  -8.9994602   1.3190686  42.8539526  -8.8934602   0.5700686
  43.8979526  -8.1614602   1.3860686  39.2839526 -19.0964602  -4.4629314
  39.0759526 -19.5144602  -5.2989314  39.8489526 -18.3594602  -4.6979314
  42.3789526  -4.9324602 -18.2389314  43.2879526  -5.1284602 -18.0099314
  42.1849526  -5.5184602 -18.9699314  43.0509526 -20.2334602  -8.6439314
  43.7989526 -19.6384602  -8.5999314  42.2919526 -19.6794602  -8.4599314
  43.1719526  -9.7734602 -16.3569314  42.3519526  -9.2804602 -16.3939314
  43.8099526  -9.1514602 -16.0079314  43.4719526 -17.6514602 -13.2049314
  43.9139526 -17.3684602 -12.4049314  43.8669526 -17.1214602 -13.8979314
  43.5219526 -12.2884602  -9.8149314  42.7439526 -11.7334602  -9.8719314
  43.2829526 -13.0864602 -10.2869314  42.9849526  -2.1804602  -8.9859314
  42.3219526  -1.9354602  -8.3409314  42.5129526  -2.7164602  -9.6229314
  45.0919526  -7.7284602 -15.1959314  45.7739526  -7.1144602 -15.4669314
  45.0159526  -7.6014602 -14.2499314  45.6819526  -1.5214602  -7.8259314
  44.7819526  -1.8464602  -7.8609314  45.5909526  -0.5744602  -7.7179314
  41.1279526   5.7265398  -9.5299314  42.0629526   5.5185398  -9.5279314
  41.0899526   6.6575398  -9.7479314  44.9139526 -11.8244602 -17.5809314
  45.7889526 -12.1344602 -17.3489314  44.4599526 -11.7354602 -16.7429314
  42.4819526 -11.6924602   2.0610686  41.5779526 -11.4454602   2.2550686
  42.9719526 -10.8724602   2.1160686  42.4659526 -15.6784602 -14.9429314
  43.0279526 -14.9364602 -15.1659314  42.2169526 -15.5254602 -14.0309314
  40.1329526  -8.6564602   6.1260686  40.6249526  -8.8044602   5.3190686
  39.8219526  -9.5254602   6.3810686  42.7639526   2.0905398 -19.4009314
  43.1849526   2.3395398 -18.5779314  43.4739526   1.7355398 -19.9349314
  40.1179526  -3.2614602 -18.0499314  40.2469526  -2.3134602 -18.0209314
  40.9629526  -3.6104602 -18.3309314  42.7539526 -13.3544602  -1.2309314
  43.3529526 -13.6504602  -0.5449314  42.2789526 -14.1434602  -1.4909314
  43.0009526 -15.2654602   3.6930686  42.9539526 -16.2214602   3.6780686
  42.3479526 -14.9824602   3.0540686  40.6449526  -8.7474602 -16.2079314
  39.8119526  -9.1154602 -15.9109314  40.5519526  -7.8044602 -16.0719314
  40.5629526 -11.9264602   7.6640686  40.7989526 -12.8124602   7.3900686
  41.1879526 -11.7144602   8.3570686  42.7859526 -14.9684602   8.4820686
  43.3629526 -14.7454602   7.7520686  43.3199526 -14.8224602   9.2630686
  39.7259526 -12.3414602  -6.8279314  39.2149526 -11.7204602  -6.3099314
  39.0739526 -12.9224602  -7.2179314  44.2449526 -14.3894602   6.0580686
  43.7639526 -14.5034602   5.2390686  44.3639526 -13.4434602   6.1370686
  42.2469526 -10.0604602  -4.3649314  41.4829526 -10.4804602  -3.9709314
  42.9969526 -10.5064602  -3.9699314  41.4639526 -19.4944602   3.1090686
  42.1349526 -18.9424602   3.5120686  40.8439526 -18.8754602   2.7250686
  44.8919526  -4.9854602 -12.4189314  44.7049526  -5.9154602 -12.2939314
  44.9229526  -4.6244602 -11.5329314  38.8649526 -20.9034602   9.4530686
  39.6649526 -20.4574602   9.7310686  38.1979526 -20.2164602   9.4450686
  40.1289526   6.4265398   9.0870686  40.3559526   6.2325398   8.1770686
  39.9949526   7.3735398   9.1040686  45.9129526  -2.2504602   9.3900686
  46.1499526  -2.7644602  10.1620686  45.3179526  -1.5784602   9.7220686
  45.2489526 -10.1214602  10.0340686  46.1969526  -9.9914602  10.0420686
  45.0799526 -10.7074602  10.7720686  44.5009526 -13.2824602   3.0560686
  44.0939526 -14.1404602   3.1740686  43.9879526 -12.8664602   2.3630686
  43.0489526 -19.0434602  10.1690686  42.4929526 -19.1154602  10.9440686
  42.5649526 -19.5014602   9.4820686  45.2789526  -4.3764602   4.1070686
  46.1589526  -4.4614602   4.4730686  45.0649526  -3.4484602   4.2080686
  44.3009526 -13.5234602 -14.0969314  43.7319526 -12.7714602 -13.9319314
  45.0589526 -13.3804602 -13.5309314  41.9849526  -2.6764602 -12.9919314
  42.3819526  -1.8314602 -12.7789314  42.4989526  -3.0034602 -13.7299314
  37.9679526   7.6035398 -18.2659314  38.2679526   8.1155398 -19.0169314
  38.1279526   6.6935398 -18.5159314  43.9989526 -16.9594602  -4.0119314
  43.5169526 -16.4074602  -4.6269314  43.3719526 -17.1444602  -3.3129314
  38.7069526 -11.8684602   5.7230686  39.4159526 -11.9924602   6.3540686
  39.1429526 -11.5614602   4.9290686  42.2049526 -17.5234602   7.3900686
  41.2769526 -17.3884602   7.1990686  42.4389526 -16.7994602   7.9700686
  41.6579526  -8.7684602   3.8620686  41.6169526  -7.8224602   4.0040686
  41.9739526  -8.8614602   2.9630686  44.3009526  -9.7144602   4.9110686
  43.4599526  -9.3934602   4.5830686  44.6499526  -8.9884602   5.4270686
  37.2569526 -12.7214602   0.8880686  36.9729526 -13.5244602   1.3240686
  37.0709526 -12.0264602   1.5190686  40.6469526 -14.3384602   6.5610686
  41.4469526 -14.8574602   6.6450686  40.5009526 -14.2744602   5.6170686
  38.0809526  -7.3494602  10.1560686  38.6289526  -6.5854602   9.9740686
  38.0389526  -7.3924602  11.1110686  37.9649526 -18.1114602   4.4770686
  37.6459526 -18.9884602   4.2660686  38.7279526 -17.9904602   3.9110686
  45.0369526 -14.4324602   0.2530686  45.0139526 -15.3884602   0.2260686
  45.8769526 -14.2234602   0.6630686  38.2119526 -15.4754602  -9.8419314
  37.7389526 -15.2084602 -10.6299314  39.0109526 -14.9484602  -9.8509314
  39.7649526  -2.7464602  -8.5069314  40.2739526  -2.1994602  -7.9089314
  40.1449526  -2.5764602  -9.3689314  39.2579526 -16.8524602  -7.3929314
  38.7819526 -16.5114602  -8.1499314  38.9339526 -16.3384602  -6.6539314
  42.0899526   7.9905398  -1.2389314  42.2239526   8.1395398  -0.3029314
  41.7049526   8.8065398  -1.5589314  40.4169526   3.0755398  -0.1149314
  41.2959526   2.6995398  -0.1599314  40.5069526   3.9435398  -0.5079314
  37.1279526  -0.0514602 -14.7839314  38.0209526  -0.3744602 -14.8999314
  36.5799526  -0.6924602 -15.2379314  41.7679526   0.9605398  -2.8979314
  42.3669526   1.7065398  -2.8669314  42.3009526   0.2145398  -2.6219314
  42.8879526  -0.1324602 -12.7179314  43.5439526   0.2505398 -12.1359314
  42.0719526  -0.0944602 -12.2189314  39.3999526  -2.7424602 -13.9589314
  38.7529526  -2.9034602 -13.2709314  40.2449526  -2.8774602 -13.5299314
  43.5859526  -2.6254602 -17.1029314  42.9939526  -2.0104602 -17.5359314
  43.0869526  -3.4404602 -17.0479314  42.9419526   5.8585398  10.4560686
  42.3459526   6.0215398   9.7240686  42.4519526   5.2795398  11.0400686
  44.3549526   1.5595398 -16.0909314  44.6629526   2.3225398 -16.5789314
  44.7359526   1.6625398 -15.2189314  41.3629526  -1.3824602  -6.9139314
  40.9339526  -0.5734602  -6.6369314  42.1239526  -1.4594602  -6.3379314
  40.3369526  -6.0454602 -16.2729314  40.7259526  -5.3874602 -16.8489314
  40.8899526  -6.0374602 -15.4919314  41.2689526  -3.7484602 -10.5539314
  41.3209526  -3.3674602 -11.4299314  40.6819526  -4.4974602 -10.6519314
  43.7949526   3.3375398 -12.4589314  44.4039526   2.8545398 -13.0169314
  43.1419526   3.6895398 -13.0639314  37.8709526  -3.7514602 -16.4129314
  38.4649526  -3.6964602 -15.6639314  38.3959526  -3.4604602 -17.1579314
  44.0029526   4.5265398  -6.4659314  43.8509526   5.4625398  -6.3379314
  44.9509526   4.4245398  -6.3819314  37.7049526  -6.7864602 -17.0499314
  37.0759526  -6.0754602 -16.9309314  38.5559526  -6.3864602 -16.8729314
  44.7679526  -5.8924602  -1.2559314  44.4709526  -5.9234602  -0.3469314
  45.5449526  -6.4514602  -1.2749314  41.4549526   1.0325398  -8.5779314
  40.9159526   1.4825398  -7.9269314  42.1459526   1.6595398  -8.7919314
  40.3979526   0.8195398  -5.3089314  40.7349526   1.5755398  -5.7899314
  40.9079526   0.8025398  -4.4989314  38.0819526 -21.5344602   6.2540686
  38.8669526 -21.4634602   5.7110686  38.3319526 -21.1404602   7.0900686
  37.8719526  -4.8424602  -3.5659314  37.2679526  -5.2764602  -2.9629314
  37.3969526  -4.0674602  -3.8649314  43.8289526   2.6485398  -9.4979314
  43.9289526   3.5565398  -9.2129314  43.9589526   2.6785398 -10.4459314
  40.4209526  -2.1564602  -1.2819314  39.5319526  -1.9634602  -0.9829314
  40.9849526  -1.8524602  -0.5719314  40.1959526   0.4165398 -11.3029314
  40.5089526   1.1735398 -10.8069314  39.2419526   0.4935398 -11.2819314
  44.1519526  -0.0794602 -10.2059314  44.3529526   0.6825398  -9.6619314
  43.6389526  -0.6524602  -9.6359314  40.2639526 -20.9464602 -14.9089314
  41.2189526 -20.8794602 -14.9149314  39.9679526 -20.1214602 -14.5249314
  45.0839526  -0.2074602  -4.8229314  45.9819526  -0.1974602  -4.4919314
  45.0679526   0.4725398  -5.4959314  45.3309526  -1.8044602   5.7800686
  45.1379526  -2.3444602   6.5470686  46.2859526  -1.8054602   5.7200686
  45.0559526   1.6715398   5.1170686  45.7209526   1.1715398   4.6440686
  45.0449526   2.5255398   4.6830686  44.2899526 -19.3444602   0.3140686
  44.8419526 -20.1104602   0.1570686  43.5389526 -19.6854602   0.8010686
  43.8589526   6.9435398  -5.2499314  44.4499526   7.6765398  -5.0759314
  43.0539526   7.1685398  -4.7839314  38.5439526   8.1815398  -3.5899314
  38.5229526   9.1325398  -3.4789314  39.3749526   8.0105398  -4.0329314
  43.9229526  -0.9874602  -1.5929314  44.5409526  -1.6844602  -1.8119314
  43.3649526  -1.3654602  -0.9129314  43.2229526   1.9765398   0.6170686
  43.4169526   1.7595398  -0.2949314  44.0499526   2.3125398   0.9650686
  38.7709526   6.9205398 -11.9009314  39.4399526   6.4115398 -12.3569314
  37.9859526   6.3745398 -11.9389314  40.4439526   3.1795398 -10.4169314
  40.8459526   4.0155398 -10.1819314  39.6079526   3.4195398 -10.8179314
  38.5029526   5.2255398 -19.0869314  39.2789526   5.5385398 -19.5519314
  38.3249526   4.3665398 -19.4689314  38.6019526  -2.4694602  -5.8769314
  37.9119526  -2.0844602  -6.4169314  39.0949526  -3.0264602  -6.4799314
  41.0349526   5.3375398  -1.3369314  40.8529526   5.2905398  -2.2749314
  41.5429526   6.1425398  -1.2319314  40.5309526 -15.3484602 -17.5779314
  41.0929526 -14.6814602 -17.9729314  41.0659526 -15.7304602 -16.8819314
  44.2849526   0.9455398   8.6300686  43.6979526   0.8355398   7.8820686
  45.1639526   0.8705398   8.2570686  37.2269526 -17.9704602 -13.6459314
  37.0819526 -18.8844602 -13.8879314  37.1629526 -17.9624602 -12.6909314
  42.1449526 -20.5294602   8.1340686  42.3269526 -19.7204602   7.6570686
  42.0139526 -21.1864602   7.4500686  41.8379526   4.9005398 -17.4019314
  41.9209526   4.1795398 -16.7779314  41.0179526   5.3315398 -17.1639314
  44.0849526  -5.5344602   1.2510686  43.5109526  -5.7924602   1.9730686
  44.0839526  -4.5774602   1.2750686  42.6079526  -0.6654602 -18.8489314
  41.7029526  -0.6264602 -19.1589314  42.9589526   0.2075398 -19.0229314
  41.0099526   2.2035398   8.4210686  40.8649526   1.2675398   8.2810686
  41.6969526   2.2435398   9.0860686  42.7169526   4.0025398   2.5840686
  43.2249526   4.3975398   1.8750686  42.3569526   3.2015398   2.2040686
  45.5499526 -18.9754602   5.4460686  45.1819526 -19.7174602   5.9250686
  45.5589526 -18.2604602   6.0820686  40.6599526  -0.5564602   8.4480686
  39.7859526  -0.6694602   8.0750686  41.2539526  -0.8684602   7.7670686
  44.8909526  -3.9224602   7.4830686  45.0409526  -3.4364602   8.2940686
  45.7609526  -4.2164602   7.2140686  45.1019526   4.0835398   9.6260686
  44.4369526   4.4685398  10.1970686  44.6589526   3.9665398   8.7860686
  36.9879526   4.1625398   3.4720686  36.8749526   3.3665398   3.9910686
  37.9279526   4.2025398   3.2950686  42.5759526  -4.5014602   5.9760686
  42.4669526  -5.4084602   6.2640686  43.4339526  -4.2444602   6.3140686
  41.9589526   0.4765398 -14.9899314  42.5739526   0.8075398 -15.6449314
  42.4779526   0.4055398 -14.1879314  38.2739526   2.3385398 -17.2009314
  38.7939526   1.8425398 -17.8329314  38.7119526   2.1925398 -16.3629314
  38.3659526  -0.6084602   2.8430686  38.6159526  -1.2764602   2.2050686
  39.0519526   0.0555398   2.7770686  44.5029526   4.6725398   0.5740686
  44.5149526   5.1195398  -0.2719314  45.3319526   4.9175398   0.9860686
  38.9999526   4.5135398   6.9550686  38.1199526   4.8515398   6.7930686
  38.8999526   3.9375398   7.7130686  43.9949526   8.1295398   4.9190686
  44.4949526   7.5955398   5.5360686  44.6269526   8.3705398   4.2420686
  45.9849526   0.1415398   0.3740686  45.3209526   0.0615398  -0.3109314
  46.0759526  -0.7444602   0.7250686  45.3429526 -20.2624602   8.6600686
  44.6859526 -20.1214602   9.3420686  45.2789526 -21.1964602   8.4560686
  44.3689526   4.8815398   6.8120686  43.4439526   4.7555398   6.5990686
  44.8099526   4.8965398   5.9630686  44.2299526   6.0175398  -1.7989314
  43.9189526   5.7465398  -2.6629314  43.6309526   6.7165398  -1.5369314
  45.1229526   7.6385398  -8.9459314  45.7019526   7.3165398  -8.2559314
  44.6009526   8.3195398  -8.5219314  45.5129526   7.0575398   8.3140686
  45.1869526   6.4735398   7.6290686  45.1109526   6.7305398   9.1190686
  42.5919526 -21.3534602   1.4140686  42.2419526 -20.7264602   2.0470686
  42.4539526 -22.2084602   1.8230686  37.1509526 -14.8014602  -1.8999314
  37.8689526 -14.1974602  -1.7109314  36.8079526 -14.5084602  -2.7439314
  37.5529526   1.3615398  -6.2249314  37.3029526   0.4535398  -6.3949314
  38.4499526   1.3065398  -5.8959314  42.7059526 -17.6134602  -1.5209314
  43.2199526 -18.1144602  -0.8889314  42.1999526 -18.2734602  -1.9959314
  42.5209526 -12.6044602  -6.1369314  41.6349526 -12.6854602  -5.7849314
  42.4969526 -11.8064602  -6.6659314  38.3329526   3.8525398  -8.3939314
  38.9739526   3.2695398  -8.8009314  37.5309526   3.3325398  -8.3459314
  37.6489526 -18.0924602 -17.3769314  37.9939526 -17.5874602 -18.1129314
  36.7099526 -18.1594602 -17.5509314  38.7859526  -6.9664602 -13.8289314
  38.1639526  -7.0164602 -14.5559314  38.8519526  -7.8654602 -13.5079314
  37.2639526  -9.6964602  -7.8769314  37.5309526  -9.9244602  -6.9869314
  37.9899526  -9.1764602  -8.2199314  41.8829526   4.2835398 -14.2349314
  41.4429526   5.1075398 -14.0229314  41.1699526   3.6655398 -14.3949314
  37.1209526 -15.1944602 -12.1939314  36.5429526 -15.6354602 -12.8179314
  37.7989526 -14.7924602 -12.7379314  42.5009526 -19.8904602  -5.3819314
  43.4429526 -19.9834602  -5.5289314  42.2099526 -19.2844602  -6.0629314
  45.6399526 -17.1304602  -0.0549314  46.2469526 -17.4334602   0.6210686
  44.9049526 -17.7424602  -0.0079314  41.2749526  -2.2684602  -3.9209314
  40.3649526  -2.0704602  -4.1419314  41.3269526  -2.1364602  -2.9749314
  39.7859526 -17.4394602   2.3880686  39.3959526 -17.9424602   1.6730686
  40.0899526 -16.6314602   1.9730686  39.7269526 -12.6024602 -10.8489314
  40.1499526 -12.4004602 -10.0139314  38.8609526 -12.2014602 -10.7819314
  39.0569526 -13.2774602  -1.0559314  39.9079526 -12.8734602  -0.8879314
  38.4989526 -12.9674602  -0.3429314  43.1559526 -18.0244602 -16.1479314
  42.8029526 -17.1604602 -15.9339314  42.4659526 -18.4434602 -16.6629314
  42.9769526 -11.2484602 -14.1189314  42.7259526 -10.6924602 -13.3809314
  42.9629526 -10.6634602 -14.8759314  41.1889526  -4.2954602   1.4210686
  40.6479526  -3.8994602   0.7380686  41.8749526  -3.6484602   1.5890686
  38.3449526 -14.7184602  -5.3199314  37.4569526 -14.7914602  -4.9729314
  38.6379526 -13.8484602  -5.0499314  38.2939526  -3.1974602 -11.3239314
  38.8769526  -3.0694602 -10.5749314  37.5039526  -3.5874602 -10.9499314
  42.2589526  -7.0104602  -3.1049314  42.9309526  -7.0924602  -2.4289314
  41.5099526  -6.6214602  -2.6539314  41.4959526 -10.6594602 -18.4349314
  40.7899526 -10.0864602 -18.1359314  42.2139526 -10.4954602 -17.8229314
  45.6039526  -2.6044602 -14.7889314  45.5349526  -3.5344602 -14.5729314
  44.9639526  -2.4724602 -15.4879314  38.0049526  -9.3314602 -15.9699314
  37.8569526  -8.6694602 -16.6449314  37.3349526  -9.9954602 -16.1339314
  38.0689526  -9.7454602 -13.0169314  37.8959526  -9.9604602 -13.9339314
  37.9279526 -10.5674602 -12.5469314  39.6929526  -5.1444602   8.1220686
  39.4589526  -5.4874602   7.2600686  40.6249526  -5.3444602   8.2150686
  38.0659526  -7.6064602   7.3130686  38.3679526  -7.5194602   8.2170686
  38.8339526  -7.9144602   6.8320686  37.7729526 -17.0484602   7.0970686
  37.9119526 -17.1944602   6.1620686  37.9669526 -16.1204602   7.2270686
  40.0069526 -11.2734602   3.4370686  39.4159526 -10.7054602   2.9420686
  40.5899526 -10.6694602   3.8970686  39.7389526 -14.4574602   3.8470686
  40.0059526 -13.6454602   3.4150686  39.1939526 -14.9054602   3.1990686
  40.3249526  -2.8314602   5.3080686  39.6999526  -3.5554602   5.3320686
  41.1729526  -3.2384602   5.4850686  42.2729526  -6.2844602   9.2480686
  42.3399526  -6.8834602   8.5050686  43.1809526  -6.1124602   9.4990686
  38.8039526 -16.7814602 -15.2559314  38.4829526 -17.1984602 -16.0559314
  38.1759526 -17.0404602 -14.5819314  43.2519526   0.0015398   5.8960686
  43.7129526   0.7795398   5.5830686  43.8909526  -0.7064602   5.8100686
  39.6069526 -17.7384602   9.5110686  39.4299526 -16.7994602   9.5540686
  39.0949526 -18.0464602   8.7630686  39.3439526  -5.5674602   5.2290686
  38.5829526  -6.0604602   4.9240686  40.0969526  -6.0774602   4.9300686
  37.2109526 -14.3554602   5.5530686  38.0909526 -14.2214602   5.1990686
  36.7679526 -13.5174602   5.4180686  42.3679526  -9.9734602 -11.9349314
  41.9349526 -10.6064602 -11.3609314  42.6649526  -9.2804602 -11.3459314
  43.1419526 -15.4904602  -6.4929314  43.8519526 -15.6034602  -7.1249314
  43.0699526 -14.5434602  -6.3789314  37.5989526 -11.7634602  -5.5849314
  36.9169526 -11.7484602  -4.9129314  37.3149526 -12.4404602  -6.1999314
  40.2269526  -5.6204602  -2.0409314  40.3779526  -4.7934602  -1.5839314
  39.4139526  -5.4814602  -2.5269314  36.9639526 -12.3014602   7.9670686
  37.5299526 -12.0324602   7.2430686  37.5429526 -12.7804602   8.5600686
  41.0039526  -7.2134602   0.6130686  40.4139526  -6.4834602   0.7980686
  40.9599526  -7.3224602  -0.3369314  42.5509526  -7.2124602   6.6540686
  41.9409526  -7.8474602   6.2770686  43.3579526  -7.7074602   6.7910686
  43.2659526 -17.8834602   4.3780686  44.1219526 -18.0954602   4.7510686
  42.7169526 -17.6844602   5.1360686  37.7409526  -7.4054602   4.0420686
  36.8019526  -7.5814602   4.0980686  38.0709526  -8.0584602   3.4250686
  39.1439526  -9.0244602   2.1890686  39.8679526  -8.4804602   1.8800686
  38.4089526  -8.7904602   1.6230686  41.7289526 -13.3234602 -19.1219314
  41.6399526 -12.3874602 -18.9429314  42.6699526 -13.4894602 -19.0669314
  40.6689526 -16.2354602  -4.7599314  41.3769526 -15.7824602  -5.2189314
  39.9369526 -15.6184602  -4.7789314  39.5239526   7.9185398   1.8390686
  38.8569526   7.2335398   1.8210686  39.2339526   8.5535398   1.1840686
  38.7999526 -16.9704602  -2.1209314  38.3579526 -17.4164602  -2.8439314
  38.1709526 -16.3124602  -1.8249314  40.8759526 -18.3904602 -13.9419314
  41.8299526 -18.3134602 -13.9089314  40.5929526 -17.6454602 -14.4719314
  38.1229526   4.0745398  -5.5119314  37.2989526   3.7105398  -5.1899314
  38.3209526   3.5625398  -6.2959314  39.0239526   8.1585398  -0.8409314
  39.3369526   7.2545398  -0.8279314  38.6009526   8.2535398  -1.6949314
  38.2459526  -3.0684602   0.5570686  37.3609526  -2.7484602   0.3830686
  38.1249526  -3.9834602   0.8120686  39.1699526   6.8045398 -15.9749314
  38.7379526   7.2455398 -16.7059314  39.5569526   7.5145398 -15.4619314
  39.8259526   1.7125398   2.2210686  39.9789526   2.0815398   1.3520686
  39.6369526   2.4705398   2.7740686  40.1429526   5.2385398  -3.9109314
  39.5019526   4.7645398  -4.4399314  40.2059526   6.0995398  -4.3239314
  38.2979526   2.8495398   9.4930686  37.8419526   2.0595398   9.7820686
  39.2089526   2.5755398   9.3850686  37.9729526  -5.6364602   1.5130686
  38.1099526  -5.8824602   2.4280686  37.1329526  -6.0334602   1.2810686
  44.2239526   2.1005398  -1.9659314  44.0499526   2.9125398  -2.4399314
  44.5729526   1.5045398  -2.6289314  41.9029526  -0.9244602   0.8510686
  41.9889526   0.0035398   1.0690686  41.9769526  -1.3764602   1.6910686
  39.9699526   5.9335398  -7.2159314  39.1139526   5.5085398  -7.2679314
  40.3579526   5.8005398  -8.0799314  37.2609526   4.3425398 -15.8409314
  37.6929526   3.8005398 -16.5019314  37.9339526   4.9635398 -15.5629314
  37.7129526   3.5555398   0.3430686  38.6409526   3.3385398   0.4300686
  37.6809526   4.1865398  -0.3749314  38.0109526   8.4295398  -9.5349314
  38.5089526   7.8685398 -10.1309314  37.1679526   8.5535398  -9.9709314
  37.2189526 -21.2504602 -13.3389314  37.2239526 -21.3224602 -14.2939314
  37.7639526 -21.9784602 -13.0409314  44.9359526 -16.8754602   9.3480686
  45.3109526 -16.7904602  10.2240686  44.4529526 -17.7014602   9.3720686
  37.6409526   1.5035398 -11.0969314  37.2759526   1.9085398 -11.8829314
  36.9469526   1.5815398 -10.4419314  38.5739526  -1.0164602   6.6380686
  39.0809526  -1.6454602   6.1240686  37.9679526  -0.6254602   6.0080686
  39.9329526   4.1825398   3.6660686  40.8589526   3.9675398   3.5510686
  39.9379526   5.0385398   4.0950686  40.8859526 -18.8894602 -17.9469314
  40.2489526 -18.4314602 -18.4959314  40.3589526 -19.4754602 -17.4049314
  40.2629526   8.1685398   4.3820686  39.9849526   7.9705398   3.4880686
  40.6989526   9.0185398   4.3160686  39.7939526  -0.3684602 -18.9479314
  38.9529526   0.0895398 -18.9389314  39.9799526  -0.5084602 -19.8769314
  42.1289526  -1.2694602   3.8350686  42.5229526  -0.7234602   4.5150686
  41.3229526  -1.6014602   4.2310686  39.1539526 -19.0874602   0.1570686
  39.1259526 -18.4284602  -0.5369314  38.4819526 -19.7234602  -0.0879314
  37.9589526 -15.3124602 -18.5779314  38.2879526 -14.8584602 -19.3539314
  38.7029526 -15.3314602 -17.9769314  41.6529526   4.3325398   6.4910686
  40.7179526   4.4985398   6.6080686  41.7909526   3.4615398   6.8650686
  41.2109526  -7.8544602  24.2780686  41.1109526  -7.1054602  24.8650686
  41.7559526  -8.4714602  24.7660686  44.0539526   5.7445398  14.6500686
  43.3489526   5.1875398  14.9800686  44.0789526   6.4835398  15.2580686
  43.8009526  -2.8194602  31.9870686  43.4739526  -2.1644602  32.6050686
  44.7429526  -2.6564602  31.9420686  42.9689526 -14.5604602  19.2180686
  42.5039526 -15.3574602  18.9650686  42.9929526 -14.0334602  18.4190686
  37.7259526  -7.4564602  19.0530686  36.9029526  -7.1364602  18.6810686
  37.9989526  -8.1574602  18.4620686  42.7049526  -7.8434602  19.4670686
  42.8549526  -7.8124602  20.4120686  41.8439526  -7.4434602  19.3470686
  39.6229526 -14.3664602  39.3640686  40.3639526 -13.9544602  39.8100686
  39.9529526 -14.5694602  38.4890686  39.4789526  -0.7594602  14.3630686
  40.2719526  -0.2234602  14.3640686  39.7629526  -1.6094602  14.6990686
  41.5219526   7.2565398  36.7510686  41.9879526   6.5795398  36.2600686
  40.8739526   7.5975398  36.1340686  38.6789526 -13.6614602  15.6550686
  39.0029526 -14.4494602  15.2200686  39.4649526 -13.2354602  15.9980686
  41.4679526 -19.8344602  27.1550686  40.5369526 -19.6974602  26.9810686
  41.8579526 -19.9584602  26.2900686  43.9649526   5.3965398  20.2750686
  44.1819526   6.2795398  20.5730686  44.1069526   5.4205398  19.3290686
  45.4439526 -15.1454602  14.0190686  46.1079526 -14.6234602  13.5690686
  45.0779526 -14.5524602  14.6760686  44.8839526  -7.7594602  17.6090686
  44.2489526  -8.0204602  18.2760686  45.4549526  -8.5214602  17.5100686
  44.7389526  -4.2284602  23.0190686  44.2229526  -3.6354602  23.5660686
  44.7039526  -5.0684602  23.4770686  44.2979526 -13.3264602  40.3690686
  44.4499526 -12.7874602  41.1450686  45.1549526 -13.3884602  39.9480686
  41.7769526 -17.9184602  22.8640686  40.9239526 -17.5794602  22.5900686
  42.3209526 -17.1384602  22.9710686  42.0069526  -7.4494602  16.5710686
  42.3329526  -8.2484602  16.9860686  41.4859526  -7.0214602  17.2500686
  40.0899526   2.1915398  15.5100686  39.6499526   1.6015398  16.1220686
  40.8809526   1.7205398  15.2480686  43.5489526  -2.4824602  24.7280686
  42.8869526  -2.5734602  25.4130686  44.1799526  -1.8584602  25.0860686
  44.4669526   7.2825398  12.1970686  43.7709526   6.7575398  11.8020686
  44.3769526   7.1305398  13.1380686  43.0969526 -20.6494602  14.9800686
  43.9459526 -21.0584602  14.8110686  43.2509526 -19.7144602  14.8480686
  45.7529526   1.5555398  16.2440686  46.2539526   1.1735398  16.9650686
  46.3949526   1.6805398  15.5450686  39.8539526 -11.2084602  26.4560686
  39.2879526 -10.7364602  25.8450686  39.2479526 -11.6614602  27.0430686
  44.3549526 -16.0424602  21.2870686  43.7399526 -15.4644602  20.8350686
  44.7309526 -16.5834602  20.5930686  41.5799526 -17.2144602  19.1280686
  40.9089526 -17.8524602  19.3680686  41.8419526 -17.4624602  18.2420686
  41.0859526 -11.4974602  29.7530686  41.7959526 -12.0404602  29.4090686
  41.2259526 -10.6384602  29.3540686  43.2879526   7.2565398  17.9090686
  42.7129526   7.7925398  18.4540686  44.0289526   7.8275398  17.7060686
  44.4469526  -6.5814602  24.6230686  43.8309526  -6.8684602  25.2970686
  44.8019526  -7.3944602  24.2620686  38.6659526 -19.6924602  22.8960686
  38.7599526 -20.1314602  22.0510686  38.8709526 -18.7754602  22.7150686
  42.9679526 -10.3954602  38.8700686  43.7749526 -10.3204602  39.3780686
  42.2859526 -10.5534602  39.5230686  41.7969526  -6.1094602  33.6450686
  41.6539526  -5.6294602  32.8290686  42.0609526  -5.4384602  34.2740686
  40.0049526  -5.0744602  24.8800686  40.6179526  -4.4244602  25.2220686
  39.3349526  -5.1544602  25.5590686  42.1559526  -9.3314602  28.6620686
  42.9219526  -9.8134602  28.3500686  41.7789526  -8.9434602  27.8720686
  41.5599526 -14.5384602  31.6120686  41.4659526 -14.8124602  30.6990686
  41.5499526 -13.5824602  31.5780686  43.1759526  -6.6714602  21.9600686
  42.5569526  -6.1524602  21.4470686  43.0859526  -6.3374602  22.8530686
  45.5919526 -17.3914602  19.1290686  45.9529526 -17.0754602  18.3010686
  46.0709526 -18.2014602  19.3060686  42.9879526   4.6435398  26.3010686
  42.0669526   4.8715398  26.1760686  43.3459526   4.5975398  25.4150686
  41.2619526 -13.4894602  17.0750686  40.6899526 -13.1984602  17.7850686
  41.4129526 -12.7034602  16.5500686  40.6369526   7.6655398  24.9050686
  40.5429526   7.2015398  24.0730686  41.1679526   8.4335398  24.6930686
  44.7359526  -5.9404602  11.0780686  45.2279526  -6.6234602  11.5330686
  45.2399526  -5.1404602  11.2280686  42.8319526  -9.9794602  22.8030686
  42.5999526  -9.7604602  23.7060686  43.6749526  -9.5494602  22.6620686
  38.2899526  -3.7174602  39.9660686  38.9949526  -3.4314602  40.5460686
  38.7369526  -4.1594602  39.2450686  39.5659526  -8.0964602  22.0340686
  40.0569526  -8.2114602  22.8480686  39.4829526  -7.1474602  21.9370686
  41.1709526 -10.5574602  20.7080686  40.4479526  -9.9464602  20.8450686
  41.7769526 -10.3774602  21.4280686  39.5599526 -19.2604602  20.0030686
  39.0109526 -18.5224602  19.7360686  38.9719526 -20.0154602  19.9840686
  40.1099526  -5.4394602  22.1130686  40.0649526  -5.3694602  23.0670686
  40.1989526  -4.5354602  21.8100686  45.1349526  -3.2454602  27.7870686
  44.9029526  -3.9524602  28.3890686  45.3319526  -3.6884602  26.9620686
  45.1099526 -20.4784602  24.5800686  45.2769526 -19.7254602  24.0130686
  45.6749526 -20.3354602  25.3410686  40.9459526   6.7375398  16.6270686
  40.6229526   7.5925398  16.3420686  41.8299526   6.9095398  16.9490686
  39.2129526   0.6015398  28.3770686  39.9319526   0.2795398  27.8350686
  39.3969526   1.5335398  28.4920686  42.8929526  -5.4514602  14.8290686
  43.6849526  -5.8874602  14.5150686  42.7079526  -5.8684602  15.6710686
  43.8249526 -11.1204602  27.4290686  44.7609526 -11.3174602  27.3910686
  43.4209526 -11.9314602  27.7380686  45.9779526  -1.1134602  12.1160686
  45.3729526  -1.7514602  12.4940686  45.8619526  -0.3274602  12.6500686
  45.2209526  -4.2074602  20.2010686  45.2019526  -3.2894602  19.9280686
  45.0869526  -4.1784602  21.1480686  45.8719526  -6.7024602  21.0290686
  44.9889526  -6.8574602  21.3660686  45.8199526  -5.8434602  20.6090686
  44.8179526  -8.2774602  37.2850686  44.5899526  -8.7944602  38.0580686
  45.5159526  -7.6944602  37.5820686  41.5219526 -21.5594602  19.6690686
  42.0439526 -21.2004602  20.3860686  40.7979526 -20.9414602  19.5660686
  40.2879526  -6.2424602  18.5120686  39.6899526  -6.1154602  17.7760686
  39.8159526  -6.8224602  19.1080686  43.4409526  -8.9994602  31.3190686
  42.8539526  -8.8934602  30.5700686  43.8979526  -8.1614602  31.3860686
  39.2839526 -19.0964602  25.5370686  39.0759526 -19.5144602  24.7010686
  39.8489526 -18.3594602  25.3020686  42.3789526  -4.9324602  11.7610686
  43.2879526  -5.1284602  11.9900686  42.1849526  -5.5184602  11.0300686
  43.0509526 -20.2334602  21.3560686  43.7989526 -19.6384602  21.4000686
  42.2919526 -19.6794602  21.5400686  43.1719526  -9.7734602  13.6430686
  42.3519526  -9.2804602  13.6060686  43.8099526  -9.1514602  13.9920686
  43.4719526 -17.6514602  16.7950686  43.9139526 -17.3684602  17.5950686
  43.8669526 -17.1214602  16.1020686  43.5219526 -12.2884602  20.1850686
  42.7439526 -11.7334602  20.1280686  43.2829526 -13.0864602  19.7130686
  42.9849526  -2.1804602  21.0140686  42.3219526  -1.9354602  21.6590686
  42.5129526  -2.7164602  20.3770686  45.6819526  -1.5214602  22.1740686
  44.7819526  -1.8464602  22.1390686  45.5909526  -0.5744602  22.2820686
  41.1279526   5.7265398  20.4700686  42.0629526   5.5185398  20.4720686
  41.0899526   6.6575398  20.2520686  44.9139526 -11.8244602  12.4190686
  45.7889526 -12.1344602  12.6510686  44.4599526 -11.7354602  13.2570686
  42.4819526 -11.6924602  32.0610686  41.5779526 -11.4454602  32.2550686
  42.9719526 -10.8724602  32.1160686  42.4659526 -15.6784602  15.0570686
  43.0279526 -14.9364602  14.8340686  42.2169526 -15.5254602  15.9690686
  40.1329526  -8.6564602  36.1260686  40.6249526  -8.8044602  35.3190686
  39.8219526  -9.5254602  36.3810686  42.7639526   2.0905398  10.5990686
  43.1849526   2.3395398  11.4220686  43.4739526   1.7355398  10.0650686
  40.1179526  -3.2614602  11.9500686  40.2469526  -2.3134602  11.9790686
  40.9629526  -3.6104602  11.6690686  42.7539526 -13.3544602  28.7690686
  43.3529526 -13.6504602  29.4550686  42.2789526 -14.1434602  28.5090686
  43.0009526 -15.2654602  33.6930686  42.9539526 -16.2214602  33.6780686
  42.3479526 -14.9824602  33.0540686  40.6449526  -8.7474602  13.7920686
  39.8119526  -9.1154602  14.0890686  40.5519526  -7.8044602  13.9280686
  40.5629526 -11.9264602  37.6640686  40.7989526 -12.8124602  37.3900686
  41.1879526 -11.7144602  38.3570686  42.7859526 -14.9684602  38.4820686
  43.3629526 -14.7454602  37.7520686  43.3199526 -14.8224602  39.2630686
  39.7259526 -12.3414602  23.1720686  39.2149526 -11.7204602  23.6900686
  39.0739526 -12.9224602  22.7820686  44.2449526 -14.3894602  36.0580686
  43.7639526 -14.5034602  35.2390686  44.3639526 -13.4434602  36.1370686
  42.2469526 -10.0604602  25.6350686  41.4829526 -10.4804602  26.0290686
  42.9969526 -10.5064602  26.0300686  41.4639526 -19.4944602  33.1090686
  42.1349526 -18.9424602  33.5120686  40.8439526 -18.8754602  32.7250686
  44.8919526  -4.9854602  17.5810686  44.7049526  -5.9154602  17.7060686
  44.9229526  -4.6244602  18.4670686  38.8649526 -20.9034602  39.4530686
  39.6649526 -20.4574602  39.7310686  38.1979526 -20.2164602  39.4450686
  40.1289526   6.4265398  39.0870686  40.3559526   6.2325398  38.1770686
  39.9949526   7.3735398  39.1040686  45.9129526  -2.2504602  39.3900686
  46.1499526  -2.7644602  40.1620686  45.3179526  -1.5784602  39.7220686
  45.2489526 -10.1214602  40.0340686  46.1969526  -9.9914602  40.0420686
  45.0799526 -10.7074602  40.7720686  44.5009526 -13.2824602  33.0560686
  44.0939526 -14.1404602  33.1740686  43.9879526 -12.8664602  32.3630686
  43.0489526 -19.0434602  40.1690686  42.4929526 -19.1154602  40.9440686
  42.5649526 -19.5014602  39.4820686  45.2789526  -4.3764602  34.1070686
  46.1589526  -4.4614602  34.4730686  45.0649526  -3.4484602  34.2080686
  44.3009526 -13.5234602  15.9030686  43.7319526 -12.7714602  16.0680686
  45.0589526 -13.3804602  16.4690686  41.9849526  -2.6764602  17.0080686
  42.3819526  -1.8314602  17.2210686  42.4989526  -3.0034602  16.2700686
  37.9679526   7.6035398  11.7340686  38.2679526   8.1155398  10.9830686
  38.1279526   6.6935398  11.4840686  43.9989526 -16.9594602  25.9880686
  43.5169526 -16.4074602  25.3730686  43.3719526 -17.1444602  26.6870686
  38.7069526 -11.8684602  35.7230686  39.4159526 -11.9924602  36.3540686
  39.1429526 -11.5614602  34.9290686  42.2049526 -17.5234602  37.3900686
  41.2769526 -17.3884602  37.1990686  42.4389526 -16.7994602  37.9700686
  41.6579526  -8.7684602  33.8620686  41.6169526  -7.8224602  34.0040686
  41.9739526  -8.8614602  32.9630686  44.3009526  -9.7144602  34.9110686
  43.4599526  -9.3934602  34.5830686  44.6499526  -8.9884602  35.4270686
  37.2569526 -12.7214602  30.8880686  36.9729526 -13.5244602  31.3240686
  37.0709526 -12.0264602  31.5190686  40.6469526 -14.3384602  36.5610686
  41.4469526 -14.8574602  36.6450686  40.5009526 -14.2744602  35.6170686
  38.0809526  -7.3494602  40.1560686  38.6289526  -6.5854602  39.9740686
  38.0389526  -7.3924602  41.1110686  37.9649526 -18.1114602  34.4770686
  37.6459526 -18.9884602  34.2660686  38.7279526 -17.9904602  33.9110686
  45.0369526 -14.4324602  30.2530686  45.0139526 -15.3884602  30.2260686
  45.8769526 -14.2234602  30.6630686  38.2119526 -15.4754602  20.1580686
  37.7389526 -15.2084602  19.3700686  39.0109526 -14.9484602  20.1490686
  39.2579526 -16.8524602  22.6070686  38.7819526 -16.5114602  21.8500686
  38.9339526 -16.3384602  23.3460686  42.0899526   7.9905398  28.7610686
  42.2239526   8.1395398  29.6970686  41.7049526   8.8065398  28.4410686
  40.4169526   3.0755398  29.8850686  41.2959526   2.6995398  29.8400686
  40.5069526   3.9435398  29.4920686  37.1279526  -0.0514602  15.2160686
  38.0209526  -0.3744602  15.1000686  36.5799526  -0.6924602  14.7620686
  41.7679526   0.9605398  27.1020686  42.3669526   1.7065398  27.1330686
  42.3009526   0.2145398  27.3780686  42.8879526  -0.1324602  17.2820686
  43.5439526   0.2505398  17.8640686  42.0719526  -0.0944602  17.7810686
  39.3999526  -2.7424602  16.0410686  38.7529526  -2.9034602  16.7290686
  40.2449526  -2.8774602  16.4700686  43.5859526  -2.6254602  12.8970686
  42.9939526  -2.0104602  12.4640686  43.0869526  -3.4404602  12.9520686
  42.9419526   5.8585398  40.4560686  42.3459526   6.0215398  39.7240686
  42.4519526   5.2795398  41.0400686  44.3549526   1.5595398  13.9090686
  44.6629526   2.3225398  13.4210686  44.7359526   1.6625398  14.7810686
  41.3629526  -1.3824602  23.0860686  40.9339526  -0.5734602  23.3630686
  42.1239526  -1.4594602  23.6620686  40.3369526  -6.0454602  13.7270686
  40.7259526  -5.3874602  13.1510686  40.8899526  -6.0374602  14.5080686
  41.2689526  -3.7484602  19.4460686  41.3209526  -3.3674602  18.5700686
  40.6819526  -4.4974602  19.3480686  43.7949526   3.3375398  17.5410686
  44.4039526   2.8545398  16.9830686  43.1419526   3.6895398  16.9360686
  37.8709526  -3.7514602  13.5870686  38.4649526  -3.6964602  14.3360686
  38.3959526  -3.4604602  12.8420686  44.0029526   4.5265398  23.5340686
  43.8509526   5.4625398  23.6620686  44.9509526   4.4245398  23.6180686
  37.7049526  -6.7864602  12.9500686  37.0759526  -6.0754602  13.0690686
  38.5559526  -6.3864602  13.1270686  44.7679526  -5.8924602  28.7440686
  44.4709526  -5.9234602  29.6530686  45.5449526  -6.4514602  28.7250686
  41.4549526   1.0325398  21.4220686  40.9159526   1.4825398  22.0730686
  42.1459526   1.6595398  21.2080686  40.3979526   0.8195398  24.6910686
  40.7349526   1.5755398  24.2100686  40.9079526   0.8025398  25.5010686
  38.0819526 -21.5344602  36.2540686  38.8669526 -21.4634602  35.7110686
  38.3319526 -21.1404602  37.0900686  37.8719526  -4.8424602  26.4340686
  37.2679526  -5.2764602  27.0370686  37.3969526  -4.0674602  26.1350686
  43.8289526   2.6485398  20.5020686  43.9289526   3.5565398  20.7870686
  43.9589526   2.6785398  19.5540686  40.4209526  -2.1564602  28.7180686
  39.5319526  -1.9634602  29.0170686  40.9849526  -1.8524602  29.4280686
  40.1959526   0.4165398  18.6970686  40.5089526   1.1735398  19.1930686
  39.2419526   0.4935398  18.7180686  44.1519526  -0.0794602  19.7940686
  44.3529526   0.6825398  20.3380686  43.6389526  -0.6524602  20.3640686
  40.2639526 -20.9464602  15.0910686  41.2189526 -20.8794602  15.0850686
  39.9679526 -20.1214602  15.4750686  45.0839526  -0.2074602  25.1770686
  45.9819526  -0.1974602  25.5080686  45.0679526   0.4725398  24.5040686
  45.3309526  -1.8044602  35.7800686  45.1379526  -2.3444602  36.5470686
  46.2859526  -1.8054602  35.7200686  45.0559526   1.6715398  35.1170686
  45.7209526   1.1715398  34.6440686  45.0449526   2.5255398  34.6830686
  44.2899526 -19.3444602  30.3140686  44.8419526 -20.1104602  30.1570686
  43.5389526 -19.6854602  30.8010686  43.8589526   6.9435398  24.7500686
  44.4499526   7.6765398  24.9240686  43.0539526   7.1685398  25.2160686
  38.5439526   8.1815398  26.4100686  38.5229526   9.1325398  26.5210686
  39.3749526   8.0105398  25.9670686  43.9229526  -0.9874602  28.4070686
  44.5409526  -1.6844602  28.1880686  43.3649526  -1.3654602  29.0870686
  43.2229526   1.9765398  30.6170686  43.4169526   1.7595398  29.7050686
  44.0499526   2.3125398  30.9650686  38.7709526   6.9205398  18.0990686
  39.4399526   6.4115398  17.6430686  37.9859526   6.3745398  18.0610686
  40.4439526   3.1795398  19.5830686  40.8459526   4.0155398  19.8180686
  39.6079526   3.4195398  19.1820686  38.5029526   5.2255398  10.9130686
  39.2789526   5.5385398  10.4480686  38.3249526   4.3665398  10.5310686
  38.6019526  -2.4694602  24.1230686  37.9119526  -2.0844602  23.5830686
  39.0949526  -3.0264602  23.5200686  41.0349526   5.3375398  28.6630686
  40.8529526   5.2905398  27.7250686  41.5429526   6.1425398  28.7680686
  40.5309526 -15.3484602  12.4220686  41.0929526 -14.6814602  12.0270686
  41.0659526 -15.7304602  13.1180686  44.2849526   0.9455398  38.6300686
  43.6979526   0.8355398  37.8820686  45.1639526   0.8705398  38.2570686
  37.2269526 -17.9704602  16.3540686  37.0819526 -18.8844602  16.1120686
  37.1629526 -17.9624602  17.3090686  42.1449526 -20.5294602  38.1340686
  42.3269526 -19.7204602  37.6570686  42.0139526 -21.1864602  37.4500686
  44.0849526  -5.5344602  31.2510686  43.5109526  -5.7924602  31.9730686
  44.0839526  -4.5774602  31.2750686  42.6079526  -0.6654602  11.1510686
  41.7029526  -0.6264602  10.8410686  42.9589526   0.2075398  10.9770686
  41.0099526   2.2035398  38.4210686  40.8649526   1.2675398  38.2810686
  41.6969526   2.2435398  39.0860686  42.7169526   4.0025398  32.5840686
  43.2249526   4.3975398  31.8750686  42.3569526   3.2015398  32.2040686
  45.5499526 -18.9754602  35.4460686  45.1819526 -19.7174602  35.9250686
  45.5589526 -18.2604602  36.0820686  40.6599526  -0.5564602  38.4480686
  39.7859526  -0.6694602  38.0750686  41.2539526  -0.8684602  37.7670686
  44.8909526  -3.9224602  37.4830686  45.0409526  -3.4364602  38.2940686
  45.7609526  -4.2164602  37.2140686  45.1019526   4.0835398  39.6260686
  44.4369526   4.4685398  40.1970686  44.6589526   3.9665398  38.7860686
  36.9879526   4.1625398  33.4720686  36.8749526   3.3665398  33.9910686
  37.9279526   4.2025398  33.2950686  42.5759526  -4.5014602  35.9760686
  42.4669526  -5.4084602  36.2640686  43.4339526  -4.2444602  36.3140686
  41.9589526   0.4765398  15.0100686  42.5739526   0.8075398  14.3550686
  42.4779526   0.4055398  15.8120686  38.2739526   2.3385398  12.7990686
  38.7939526   1.8425398  12.1670686  38.7119526   2.1925398  13.6370686
  38.3659526  -0.6084602  32.8430686  38.6159526  -1.2764602  32.2050686
  39.0519526   0.0555398  32.7770686  44.5029526   4.6725398  30.5740686
  44.5149526   5.1195398  29.7280686  45.3319526   4.9175398  30.9860686
  38.9999526   4.5135398  36.9550686  38.1199526   4.8515398  36.7930686
  38.8999526   3.9375398  37.7130686  43.9949526   8.1295398  34.9190686
  44.4949526   7.5955398  35.5360686  44.6269526   8.3705398  34.2420686
  45.9849526   0.1415398  30.3740686  45.3209526   0.0615398  29.6890686
  46.0759526  -0.7444602  30.7250686  45.3429526 -20.2624602  38.6600686
  44.6859526 -20.1214602  39.3420686  45.2789526 -21.1964602  38.4560686
  44.3689526   4.8815398  36.8120686  43.4439526   4.7555398  36.5990686
  44.8099526   4.8965398  35.9630686  44.2299526   6.0175398  28.2010686
  43.9189526   5.7465398  27.3370686  43.6309526   6.7165398  28.4630686
  45.1229526   7.6385398  21.0540686  45.7019526   7.3165398  21.7440686
  44.6009526   8.3195398  21.4780686  45.5129526   7.0575398  38.3140686
  45.1869526   6.4735398  37.6290686  45.1109526   6.7305398  39.1190686
  42.5919526 -21.3534602  31.4140686  42.2419526 -20.7264602  32.0470686
  42.4539526 -22.2084602  31.8230686  37.1509526 -14.8014602  28.1000686
  37.8689526 -14.1974602  28.2890686  36.8079526 -14.5084602  27.2560686
  37.5529526   1.3615398  23.7750686  37.3029526   0.4535398  23.6050686
  38.4499526   1.3065398  24.1040686  42.7059526 -17.6134602  28.4790686
  43.2199526 -18.1144602  29.1110686  42.1999526 -18.2734602  28.0040686
  42.5209526 -12.6044602  23.8630686  41.6349526 -12.6854602  24.2150686
  42.4969526 -11.8064602  23.3340686  38.3329526   3.8525398  21.6060686
  38.9739526   3.2695398  21.1990686  37.5309526   3.3325398  21.6540686
  37.6489526 -18.0924602  12.6230686  37.9939526 -17.5874602  11.8870686
  36.7099526 -18.1594602  12.4490686  38.7859526  -6.9664602  16.1710686
  38.1639526  -7.0164602  15.4440686  38.8519526  -7.8654602  16.4920686
  37.2639526  -9.6964602  22.1230686  37.5309526  -9.9244602  23.0130686
  37.9899526  -9.1764602  21.7800686  41.8829526   4.2835398  15.7650686
  41.4429526   5.1075398  15.9770686  41.1699526   3.6655398  15.6050686
  37.1209526 -15.1944602  17.8060686  36.5429526 -15.6354602  17.1820686
  37.7989526 -14.7924602  17.2620686  42.5009526 -19.8904602  24.6180686
  43.4429526 -19.9834602  24.4710686  42.2099526 -19.2844602  23.9370686
  45.6399526 -17.1304602  29.9450686  46.2469526 -17.4334602  30.6210686
  44.9049526 -17.7424602  29.9920686  41.2749526  -2.2684602  26.0790686
  40.3649526  -2.0704602  25.8580686  41.3269526  -2.1364602  27.0250686
  39.7859526 -17.4394602  32.3880686  39.3959526 -17.9424602  31.6730686
  40.0899526 -16.6314602  31.9730686  39.7269526 -12.6024602  19.1510686
  40.1499526 -12.4004602  19.9860686  38.8609526 -12.2014602  19.2180686
  39.0569526 -13.2774602  28.9440686  39.9079526 -12.8734602  29.1120686
  38.4989526 -12.9674602  29.6570686  43.1559526 -18.0244602  13.8520686
  42.8029526 -17.1604602  14.0660686  42.4659526 -18.4434602  13.3370686
  41.1889526  -4.2954602  31.4210686  40.6479526  -3.8994602  30.7380686
  41.8749526  -3.6484602  31.5890686  38.3449526 -14.7184602  24.6800686
  37.4569526 -14.7914602  25.0270686  38.6379526 -13.8484602  24.9500686
  42.2589526  -7.0104602  26.8950686  42.9309526  -7.0924602  27.5710686
  41.5099526  -6.6214602  27.3460686  41.4959526 -10.6594602  11.5650686
  40.7899526 -10.0864602  11.8640686  42.2139526 -10.4954602  12.1770686
  45.6039526  -2.6044602  15.2110686  45.5349526  -3.5344602  15.4270686
  44.9639526  -2.4724602  14.5120686  38.0049526  -9.3314602  14.0300686
  37.8569526  -8.6694602  13.3550686  37.3349526  -9.9954602  13.8660686
  38.0689526  -9.7454602  16.9830686  37.8959526  -9.9604602  16.0660686
  37.9279526 -10.5674602  17.4530686  39.6929526  -5.1444602  38.1220686
  39.4589526  -5.4874602  37.2600686  40.6249526  -5.3444602  38.2150686
  38.0659526  -7.6064602  37.3130686  38.3679526  -7.5194602  38.2170686
  38.8339526  -7.9144602  36.8320686  37.7729526 -17.0484602  37.0970686
  37.9119526 -17.1944602  36.1620686  37.9669526 -16.1204602  37.2270686
  40.0069526 -11.2734602  33.4370686  39.4159526 -10.7054602  32.9420686
  40.5899526 -10.6694602  33.8970686  39.7389526 -14.4574602  33.8470686
  40.0059526 -13.6454602  33.4150686  39.1939526 -14.9054602  33.1990686
  40.3249526  -2.8314602  35.3080686  39.6999526  -3.5554602  35.3320686
  41.1729526  -3.2384602  35.4850686  42.2729526  -6.2844602  39.2480686
  42.3399526  -6.8834602  38.5050686  43.1809526  -6.1124602  39.4990686
  38.8039526 -16.7814602  14.7440686  38.4829526 -17.1984602  13.9440686
  38.1759526 -17.0404602  15.4180686  43.2519526   0.0015398  35.8960686
  43.7129526   0.7795398  35.5830686  43.8909526  -0.7064602  35.8100686
  39.6069526 -17.7384602  39.5110686  39.4299526 -16.7994602  39.5540686
  39.0949526 -18.0464602  38.7630686  39.3439526  -5.5674602  35.2290686
  38.5829526  -6.0604602  34.9240686  40.0969526  -6.0774602  34.9300686
  37.2109526 -14.3554602  35.5530686  38.0909526 -14.2214602  35.1990686
  36.7679526 -13.5174602  35.4180686  42.3679526  -9.9734602  18.0650686
  41.9349526 -10.6064602  18.6390686  42.6649526  -9.2804602  18.6540686
  43.1419526 -15.4904602  23.5070686  43.8519526 -15.6034602  22.8750686
  43.0699526 -14.5434602  23.6210686  37.5989526 -11.7634602  24.4150686
  36.9169526 -11.7484602  25.0870686  37.3149526 -12.4404602  23.8000686
  40.2269526  -5.6204602  27.9590686  40.3779526  -4.7934602  28.4160686
  39.4139526  -5.4814602  27.4730686  41.0039526  -7.2134602  30.6130686
  40.4139526  -6.4834602  30.7980686  40.9599526  -7.3224602  29.6630686
  42.5509526  -7.2124602  36.6540686  41.9409526  -7.8474602  36.2770686
  43.3579526  -7.7074602  36.7910686  43.2659526 -17.8834602  34.3780686
  44.1219526 -18.0954602  34.7510686  42.7169526 -17.6844602  35.1360686
  37.7409526  -7.4054602  34.0420686  36.8019526  -7.5814602  34.0980686
  38.0709526  -8.0584602  33.4250686  39.1439526  -9.0244602  32.1890686
  39.8679526  -8.4804602  31.8800686  38.4089526  -8.7904602  31.6230686
  41.7289526 -13.3234602  10.8780686  41.6399526 -12.3874602  11.0570686
  42.6699526 -13.4894602  10.9330686  40.6689526 -16.2354602  25.2400686
  41.3769526 -15.7824602  24.7810686  39.9369526 -15.6184602  25.2210686
  39.5239526   7.9185398  31.8390686  38.8569526   7.2335398  31.8210686
  39.2339526   8.5535398  31.1840686  38.7999526 -16.9704602  27.8790686
  38.3579526 -17.4164602  27.1560686  38.1709526 -16.3124602  28.1750686
  40.8759526 -18.3904602  16.0580686  41.8299526 -18.3134602  16.0910686
  40.5929526 -17.6454602  15.5280686  38.1229526   4.0745398  24.4880686
  37.2989526   3.7105398  24.8100686  38.3209526   3.5625398  23.7040686
  39.0239526   8.1585398  29.1590686  39.3369526   7.2545398  29.1720686
  38.6009526   8.2535398  28.3050686  38.2459526  -3.0684602  30.5570686
  37.3609526  -2.7484602  30.3830686  38.1249526  -3.9834602  30.8120686
  39.1699526   6.8045398  14.0250686  38.7379526   7.2455398  13.2940686
  39.5569526   7.5145398  14.5380686  39.8259526   1.7125398  32.2210686
  39.9789526   2.0815398  31.3520686  39.6369526   2.4705398  32.7740686
  40.1429526   5.2385398  26.0890686  39.5019526   4.7645398  25.5600686
  40.2059526   6.0995398  25.6760686  38.2979526   2.8495398  39.4930686
  37.8419526   2.0595398  39.7820686  39.2089526   2.5755398  39.3850686
  37.9729526  -5.6364602  31.5130686  38.1099526  -5.8824602  32.4280686
  37.1329526  -6.0334602  31.2810686  44.2239526   2.1005398  28.0340686
  44.0499526   2.9125398  27.5600686  44.5729526   1.5045398  27.3710686
  41.9029526  -0.9244602  30.8510686  41.9889526   0.0035398  31.0690686
  41.9769526  -1.3764602  31.6910686  39.9699526   5.9335398  22.7840686
  39.1139526   5.5085398  22.7320686  40.3579526   5.8005398  21.9200686
  37.2609526   4.3425398  14.1590686  37.6929526   3.8005398  13.4980686
  37.9339526   4.9635398  14.4370686  37.7129526   3.5555398  30.3430686
  38.6409526   3.3385398  30.4300686  37.6809526   4.1865398  29.6250686
  38.0109526   8.4295398  20.4650686  38.5089526   7.8685398  19.8690686
  37.1679526   8.5535398  20.0290686  37.2189526 -21.2504602  16.6610686
  37.2239526 -21.3224602  15.7060686  37.7639526 -21.9784602  16.9590686
  44.9359526 -16.8754602  39.3480686  45.3109526 -16.7904602  40.2240686
  44.4529526 -17.7014602  39.3720686  37.6409526   1.5035398  18.9030686
  37.2759526   1.9085398  18.1170686  36.9469526   1.5815398  19.5580686
  38.5739526  -1.0164602  36.6380686  39.0809526  -1.6454602  36.1240686
  37.9679526  -0.6254602  36.0080686  39.9329526   4.1825398  33.6660686
  40.8589526   3.9675398  33.5510686  39.9379526   5.0385398  34.0950686
  40.8859526 -18.8894602  12.0530686  40.2489526 -18.4314602  11.5040686
  40.3589526 -19.4754602  12.5950686  40.2629526   8.1685398  34.3820686
  39.9849526   7.9705398  33.4880686  40.6989526   9.0185398  34.3160686
  39.7939526  -0.3684602  11.0520686  38.9529526   0.0895398  11.0610686
  39.9799526  -0.5084602  10.1230686  42.1289526  -1.2694602  33.8350686
  42.5229526  -0.7234602  34.5150686  41.3229526  -1.6014602  34.2310686
  39.1539526 -19.0874602  30.1570686  39.1259526 -18.4284602  29.4630686
  38.4819526 -19.7234602  29.9120686  37.9589526 -15.3124602  11.4220686
  38.2879526 -14.8584602  10.6460686  38.7029526 -15.3314602  12.0230686
  41.6529526   4.3325398  36.4910686  40.7179526   4.4985398  36.6080686
  41.7909526   3.4615398  36.8650686  44.0539526   5.7445398  44.6500686
  43.3489526   5.1875398  44.9800686  44.0789526   6.4835398  45.2580686
  42.9689526 -14.5604602  49.2180686  42.5039526 -15.3574602  48.9650686
  42.9929526 -14.0334602  48.4190686  37.7259526  -7.4564602  49.0530686
  36.9029526  -7.1364602  48.6810686  37.9989526  -8.1574602  48.4620686
  39.4789526  -0.7594602  44.3630686  40.2719526  -0.2234602  44.3640686
  39.7629526  -1.6094602  44.6990686  38.6789526 -13.6614602  45.6550686
  39.0029526 -14.4494602  45.2200686  39.4649526 -13.2354602  45.9980686
  45.4439526 -15.1454602  44.0190686  46.1079526 -14.6234602  43.5690686
  45.0779526 -14.5524602  44.6760686  44.8839526  -7.7594602  47.6090686
  44.2489526  -8.0204602  48.2760686  45.4549526  -8.5214602  47.5100686
  42.0069526  -7.4494602  46.5710686  42.3329526  -8.2484602  46.9860686
  41.4859526  -7.0214602  47.2500686  40.0899526   2.1915398  45.5100686
  39.6499526   1.6015398  46.1220686  40.8809526   1.7205398  45.2480686
  44.4669526   7.2825398  42.1970686  43.7709526   6.7575398  41.8020686
  44.3769526   7.1305398  43.1380686  43.0969526 -20.6494602  44.9800686
  43.9459526 -21.0584602  44.8110686  43.2509526 -19.7144602  44.8480686
  45.7529526   1.5555398  46.2440686  46.2539526   1.1735398  46.9650686
  46.3949526   1.6805398  45.5450686  41.5799526 -17.2144602  49.1280686
  40.9089526 -17.8524602  49.3680686  41.8419526 -17.4624602  48.2420686
  43.2879526   7.2565398  47.9090686  42.7129526   7.7925398  48.4540686
  44.0289526   7.8275398  47.7060686  45.5919526 -17.3914602  49.1290686
  45.9529526 -17.0754602  48.3010686  46.0709526 -18.2014602  49.3060686
  41.2619526 -13.4894602  47.0750686  40.6899526 -13.1984602  47.7850686
  41.4129526 -12.7034602  46.5500686  40.9459526   6.7375398  46.6270686
  40.6229526   7.5925398  46.3420686  41.8299526   6.9095398  46.9490686
  42.8929526  -5.4514602  44.8290686  43.6849526  -5.8874602  44.5150686
  42.7079526  -5.8684602  45.6710686  45.9779526  -1.1134602  42.1160686
  45.3729526  -1.7514602  42.4940686  45.8619526  -0.3274602  42.6500686
  40.2879526  -6.2424602  48.5120686  39.6899526  -6.1154602  47.7760686
  39.8159526  -6.8224602  49.1080686  42.3789526  -4.9324602  41.7610686
  43.2879526  -5.1284602  41.9900686  42.1849526  -5.5184602  41.0300686
  43.1719526  -9.7734602  43.6430686  42.3519526  -9.2804602  43.6060686
  43.8099526  -9.1514602  43.9920686  43.4719526 -17.6514602  46.7950686
  43.9139526 -17.3684602  47.5950686  43.8669526 -17.1214602  46.1020686
  44.9139526 -11.8244602  42.4190686  45.7889526 -12.1344602  42.6510686
  44.4599526 -11.7354602  43.2570686  42.4659526 -15.6784602  45.0570686
  43.0279526 -14.9364602  44.8340686  42.2169526 -15.5254602  45.9690686
  42.7639526   2.0905398  40.5990686  43.1849526   2.3395398  41.4220686
  43.4739526   1.7355398  40.0650686  40.1179526  -3.2614602  41.9500686
  40.2469526  -2.3134602  41.9790686  40.9629526  -3.6104602  41.6690686
  40.6449526  -8.7474602  43.7920686  39.8119526  -9.1154602  44.0890686
  40.5519526  -7.8044602  43.9280686  44.8919526  -4.9854602  47.5810686
  44.7049526  -5.9154602  47.7060686  44.9229526  -4.6244602  48.4670686
  44.3009526 -13.5234602  45.9030686  43.7319526 -12.7714602  46.0680686
  45.0589526 -13.3804602  46.4690686  41.9849526  -2.6764602  47.0080686
  42.3819526  -1.8314602  47.2210686  42.4989526  -3.0034602  46.2700686
  37.9679526   7.6035398  41.7340686  38.2679526   8.1155398  40.9830686
  38.1279526   6.6935398  41.4840686  37.1279526  -0.0514602  45.2160686
  38.0209526  -0.3744602  45.1000686  36.5799526  -0.6924602  44.7620686
  42.8879526  -0.1324602  47.2820686  43.5439526   0.2505398  47.8640686
  42.0719526  -0.0944602  47.7810686  39.3999526  -2.7424602  46.0410686
  38.7529526  -2.9034602  46.7290686  40.2449526  -2.8774602  46.4700686
  43.5859526  -2.6254602  42.8970686  42.9939526  -2.0104602  42.4640686
  43.0869526  -3.4404602  42.9520686  44.3549526   1.5595398  43.9090686
  44.6629526   2.3225398  43.4210686  44.7359526   1.6625398  44.7810686
  40.3369526  -6.0454602  43.7270686  40.7259526  -5.3874602  43.1510686
  40.8899526  -6.0374602  44.5080686  43.7949526   3.3375398  47.5410686
  44.4039526   2.8545398  46.9830686  43.1419526   3.6895398  46.9360686
  37.8709526  -3.7514602  43.5870686  38.4649526  -3.6964602  44.3360686
  38.3959526  -3.4604602  42.8420686  37.7049526  -6.7864602  42.9500686
  37.0759526  -6.0754602  43.0690686  38.5559526  -6.3864602  43.1270686
  40.2639526 -20.9464602  45.0910686  41.2189526 -20.8794602  45.0850686
  39.9679526 -20.1214602  45.4750686  38.7709526   6.9205398  48.0990686
  39.4399526   6.4115398  47.6430686  37.9859526   6.3745398  48.0610686
  38.5029526   5.2255398  40.9130686  39.2789526   5.5385398  40.4480686
  38.3249526   4.3665398  40.5310686  40.5309526 -15.3484602  42.4220686
  41.0929526 -14.6814602  42.0270686  41.0659526 -15.7304602  43.1180686
  37.2269526 -17.9704602  46.3540686  37.0819526 -18.8844602  46.1120686
  37.1629526 -17.9624602  47.3090686  41.8379526   4.9005398  42.5980686
  41.9209526   4.1795398  43.2220686  41.0179526   5.3315398  42.8360686
  42.6079526  -0.6654602  41.1510686  41.7029526  -0.6264602  40.8410686
  42.9589526   0.2075398  40.9770686  41.9589526   0.4765398  45.0100686
  42.5739526   0.8075398  44.3550686  42.4779526   0.4055398  45.8120686
  38.2739526   2.3385398  42.7990686  38.7939526   1.8425398  42.1670686
  38.7119526   2.1925398  43.6370686  37.6489526 -18.0924602  42.6230686
  37.9939526 -17.5874602  41.8870686  36.7099526 -18.1594602  42.4490686
  38.7859526  -6.9664602  46.1710686  38.1639526  -7.0164602  45.4440686
  38.8519526  -7.8654602  46.4920686  41.8829526   4.2835398  45.7650686
  41.4429526   5.1075398  45.9770686  41.1699526   3.6655398  45.6050686
  37.1209526 -15.1944602  47.8060686  36.5429526 -15.6354602  47.1820686
  37.7989526 -14.7924602  47.2620686  39.7269526 -12.6024602  49.1510686
  40.1499526 -12.4004602  49.9860686  38.8609526 -12.2014602  49.2180686
  43.1559526 -18.0244602  43.8520686  42.8029526 -17.1604602  44.0660686
  42.4659526 -18.4434602  43.3370686  42.9769526 -11.2484602  45.8810686
  42.7259526 -10.6924602  46.6190686  42.9629526 -10.6634602  45.1240686
  38.2939526  -3.1974602  48.6760686  38.8769526  -3.0694602  49.4250686
  37.5039526  -3.5874602  49.0500686  41.4959526 -10.6594602  41.5650686
  40.7899526 -10.0864602  41.8640686  42.2139526 -10.4954602  42.1770686
  45.6039526  -2.6044602  45.2110686  45.5349526  -3.5344602  45.4270686
  44.9639526  -2.4724602  44.5120686  38.0049526  -9.3314602  44.0300686
  37.8569526  -8.6694602  43.3550686  37.3349526  -9.9954602  43.8660686
  38.0689526  -9.7454602  46.9830686  37.8959526  -9.9604602  46.0660686
  37.9279526 -10.5674602  47.4530686  38.8039526 -16.7814602  44.7440686
  38.4829526 -17.1984602  43.9440686  38.1759526 -17.0404602  45.4180686
  42.3679526  -9.9734602  48.0650686  41.9349526 -10.6064602  48.6390686
  42.6649526  -9.2804602  48.6540686  41.7289526 -13.3234602  40.8780686
  41.6399526 -12.3874602  41.0570686  42.6699526 -13.4894602  40.9330686
  40.8759526 -18.3904602  46.0580686  41.8299526 -18.3134602  46.0910686
  40.5929526 -17.6454602  45.5280686  39.1699526   6.8045398  44.0250686
  38.7379526   7.2455398  43.2940686  39.5569526   7.5145398  44.5380686
  37.2609526   4.3425398  44.1590686  37.6929526   3.8005398  43.4980686
  37.9339526   4.9635398  44.4370686  37.2189526 -21.2504602  46.6610686
  37.2239526 -21.3224602  45.7060686  37.7639526 -21.9784602  46.9590686
  37.6409526   1.5035398  48.9030686  37.2759526   1.9085398  48.1170686
  36.9469526   1.5815398  49.5580686  40.8859526 -18.8894602  42.0530686
  40.2489526 -18.4314602  41.5040686  40.3589526 -19.4754602  42.5950686
  39.7939526  -0.3684602  41.0520686  38.9529526   0.0895398  41.0610686
  39.9799526  -0.5084602  40.1230686  37.9589526 -15.3124602  41.4220686
  38.2879526 -14.8584602  40.6460686  38.7029526 -15.3314602  42.0230686
  41.2109526  22.1455398  -5.7219314  41.1109526  22.8945398  -5.1349314
  41.7559526  21.5285398  -5.2339314  44.0539526  35.7445398 -15.3499314
  43.3489526  35.1875398 -15.0199314  44.0789526  36.4835398 -14.7419314
  43.8009526  27.1805398   1.9870686  43.4739526  27.8355398   2.6050686
  44.7429526  27.3435398   1.9420686  42.9689526  15.4395398 -10.7819314
  42.5039526  14.6425398 -11.0349314  42.9929526  15.9665398 -11.5809314
  37.7259526  22.5435398 -10.9469314  36.9029526  22.8635398 -11.3189314
  37.9989526  21.8425398 -11.5379314  42.7049526  22.1565398 -10.5329314
  42.8549526  22.1875398  -9.5879314  41.8439526  22.5565398 -10.6529314
  39.6229526  15.6335398   9.3640686  40.3639526  16.0455398   9.8100686
  39.9529526  15.4305398   8.4890686  39.4789526  29.2405398 -15.6369314
  40.2719526  29.7765398 -15.6359314  39.7629526  28.3905398 -15.3009314
  41.5219526  37.2565398   6.7510686  41.9879526  36.5795398   6.2600686
  40.8739526  37.5975398   6.1340686  38.6789526  16.3385398 -14.3449314
  39.0029526  15.5505398 -14.7799314  39.4649526  16.7645398 -14.0019314
  41.4679526  10.1655398  -2.8449314  40.5369526  10.3025398  -3.0189314
  41.8579526  10.0415398  -3.7099314  43.9649526  35.3965398  -9.7249314
  44.1819526  36.2795398  -9.4269314  44.1069526  35.4205398 -10.6709314
  45.4439526  14.8545398 -15.9809314  46.1079526  15.3765398 -16.4309314
  45.0779526  15.4475398 -15.3239314  44.8839526  22.2405398 -12.3909314
  44.2489526  21.9795398 -11.7239314  45.4549526  21.4785398 -12.4899314
  44.7389526  25.7715398  -6.9809314  44.2229526  26.3645398  -6.4339314
  44.7039526  24.9315398  -6.5229314  44.2979526  16.6735398  10.3690686
  44.4499526  17.2125398  11.1450686  45.1549526  16.6115398   9.9480686
  41.7769526  12.0815398  -7.1359314  40.9239526  12.4205398  -7.4099314
  42.3209526  12.8615398  -7.0289314  42.0069526  22.5505398 -13.4289314
  42.3329526  21.7515398 -13.0139314  41.4859526  22.9785398 -12.7499314
  40.0899526  32.1915398 -14.4899314  39.6499526  31.6015398 -13.8779314
  40.8809526  31.7205398 -14.7519314  43.5489526  27.5175398  -5.2719314
  42.8869526  27.4265398  -4.5869314  44.1799526  28.1415398  -4.9139314
  44.4669526  37.2825398 -17.8029314  43.7709526  36.7575398 -18.1979314
  44.3769526  37.1305398 -16.8619314  43.0969526   9.3505398 -15.0199314
  43.9459526   8.9415398 -15.1889314  43.2509526  10.2855398 -15.1519314
  45.7529526  31.5555398 -13.7559314  46.2539526  31.1735398 -13.0349314
  46.3949526  31.6805398 -14.4549314  39.8539526  18.7915398  -3.5439314
  39.2879526  19.2635398  -4.1549314  39.2479526  18.3385398  -2.9569314
  40.8829526  14.3995398  -0.9369314  41.6259526  13.8645398  -1.2149314
  40.1319526  14.0245398  -1.3979314  44.3549526  13.9575398  -8.7129314
  43.7399526  14.5355398  -9.1649314  44.7309526  13.4165398  -9.4069314
  41.5799526  12.7855398 -10.8719314  40.9089526  12.1475398 -10.6319314
  41.8419526  12.5375398 -11.7579314  41.0859526  18.5025398  -0.2469314
  41.7959526  17.9595398  -0.5909314  41.2259526  19.3615398  -0.6459314
  43.2879526  37.2565398 -12.0909314  42.7129526  37.7925398 -11.5459314
  44.0289526  37.8275398 -12.2939314  44.4469526  23.4185398  -5.3769314
  43.8309526  23.1315398  -4.7029314  44.8019526  22.6055398  -5.7379314
  38.6659526  10.3075398  -7.1039314  38.7599526   9.8685398  -7.9489314
  38.8709526  11.2245398  -7.2849314  42.9679526  19.6045398   8.8700686
  43.7749526  19.6795398   9.3780686  42.2859526  19.4465398   9.5230686
  41.7969526  23.8905398   3.6450686  41.6539526  24.3705398   2.8290686
  42.0609526  24.5615398   4.2740686  40.0049526  24.9255398  -5.1199314
  40.6179526  25.5755398  -4.7779314  39.3349526  24.8455398  -4.4409314
  42.1559526  20.6685398  -1.3379314  42.9219526  20.1865398  -1.6499314
  41.7789526  21.0565398  -2.1279314  41.5599526  15.4615398   1.6120686
  41.4659526  15.1875398   0.6990686  41.5499526  16.4175398   1.5780686
  41.4469526  33.1195398  -6.3499314  42.2719526  33.5515398  -6.5729314
  40.9639526  33.7705398  -5.8419314  43.1759526  23.3285398  -8.0399314
  42.5569526  23.8475398  -8.5529314  43.0859526  23.6625398  -7.1469314
  45.5919526  12.6085398 -10.8709314  45.9529526  12.9245398 -11.6989314
  46.0709526  11.7985398 -10.6939314  42.9879526  34.6435398  -3.6989314
  42.0669526  34.8715398  -3.8239314  43.3459526  34.5975398  -4.5849314
  41.2619526  16.5105398 -12.9249314  40.6899526  16.8015398 -12.2149314
  41.4129526  17.2965398 -13.4499314  40.6369526  37.6655398  -5.0949314
  40.5429526  37.2015398  -5.9269314  41.1679526  38.4335398  -5.3069314
  44.7359526  24.0595398 -18.9219314  45.2279526  23.3765398 -18.4669314
  45.2399526  24.8595398 -18.7719314  42.8319526  20.0205398  -7.1969314
  42.5999526  20.2395398  -6.2939314  43.6749526  20.4505398  -7.3379314
  38.2899526  26.2825398   9.9660686  38.9949526  26.5685398  10.5460686
  38.7369526  25.8405398   9.2450686  39.5659526  21.9035398  -7.9659314
  40.0569526  21.7885398  -7.1519314  39.4829526  22.8525398  -8.0629314
  41.1709526  19.4425398  -9.2919314  40.4479526  20.0535398  -9.1549314
  41.7769526  19.6225398  -8.5719314  39.5599526  10.7395398  -9.9969314
  39.0109526  11.4775398 -10.2639314  38.9719526   9.9845398 -10.0159314
  40.1099526  24.5605398  -7.8869314  40.0649526  24.6305398  -6.9329314
  40.1989526  25.4645398  -8.1899314  45.1349526  26.7545398  -2.2129314
  44.9029526  26.0475398  -1.6109314  45.3319526  26.3115398  -3.0379314
  45.1099526   9.5215398  -5.4199314  45.2769526  10.2745398  -5.9869314
  45.6749526   9.6645398  -4.6589314  40.9459526  36.7375398 -13.3729314
  40.6229526  37.5925398 -13.6579314  41.8299526  36.9095398 -13.0509314
  39.2129526  30.6015398  -1.6229314  39.9319526  30.2795398  -2.1649314
  39.3969526  31.5335398  -1.5079314  42.8929526  24.5485398 -15.1709314
  43.6849526  24.1125398 -15.4849314  42.7079526  24.1315398 -14.3289314
  43.8249526  18.8795398  -2.5709314  44.7609526  18.6825398  -2.6089314
  43.4209526  18.0685398  -2.2619314  45.9779526  28.8865398 -17.8839314
  45.3729526  28.2485398 -17.5059314  45.8619526  29.6725398 -17.3499314
  45.2209526  25.7925398  -9.7989314  45.2019526  26.7105398 -10.0719314
  45.0869526  25.8215398  -8.8519314  45.8719526  23.2975398  -8.9709314
  44.9889526  23.1425398  -8.6339314  45.8199526  24.1565398  -9.3909314
  44.8179526  21.7225398   7.2850686  44.5899526  21.2055398   8.0580686
  45.5159526  22.3055398   7.5820686  41.5219526   8.4405398 -10.3309314
  42.0439526   8.7995398  -9.6139314  40.7979526   9.0585398 -10.4339314
  40.2879526  23.7575398 -11.4879314  39.6899526  23.8845398 -12.2239314
  39.8159526  23.1775398 -10.8919314  43.4409526  21.0005398   1.3190686
  42.8539526  21.1065398   0.5700686  43.8979526  21.8385398   1.3860686
  39.2839526  10.9035398  -4.4629314  39.0759526  10.4855398  -5.2989314
  39.8489526  11.6405398  -4.6979314  42.3789526  25.0675398 -18.2389314
  43.2879526  24.8715398 -18.0099314  42.1849526  24.4815398 -18.9699314
  43.0509526   9.7665398  -8.6439314  43.7989526  10.3615398  -8.5999314
  42.2919526  10.3205398  -8.4599314  43.1719526  20.2265398 -16.3569314
  42.3519526  20.7195398 -16.3939314  43.8099526  20.8485398 -16.0079314
  43.4719526  12.3485398 -13.2049314  43.9139526  12.6315398 -12.4049314
  43.8669526  12.8785398 -13.8979314  43.5219526  17.7115398  -9.8149314
  42.7439526  18.2665398  -9.8719314  43.2829526  16.9135398 -10.2869314
  42.9849526  27.8195398  -8.9859314  42.3219526  28.0645398  -8.3409314
  42.5129526  27.2835398  -9.6229314  45.0919526  22.2715398 -15.1959314
  45.7739526  22.8855398 -15.4669314  45.0159526  22.3985398 -14.2499314
  45.6819526  28.4785398  -7.8259314  44.7819526  28.1535398  -7.8609314
  45.5909526  29.4255398  -7.7179314  41.1279526  35.7265398  -9.5299314
  42.0629526  35.5185398  -9.5279314  41.0899526  36.6575398  -9.7479314
  44.9139526  18.1755398 -17.5809314  45.7889526  17.8655398 -17.3489314
  44.4599526  18.2645398 -16.7429314  42.4819526  18.3075398   2.0610686
  41.5779526  18.5545398   2.2550686  42.9719526  19.1275398   2.1160686
  42.4659526  14.3215398 -14.9429314  43.0279526  15.0635398 -15.1659314
  42.2169526  14.4745398 -14.0309314  40.1329526  21.3435398   6.1260686
  40.6249526  21.1955398   5.3190686  39.8219526  20.4745398   6.3810686
  42.7639526  32.0905398 -19.4009314  43.1849526  32.3395398 -18.5779314
  43.4739526  31.7355398 -19.9349314  40.1179526  26.7385398 -18.0499314
  40.2469526  27.6865398 -18.0209314  40.9629526  26.3895398 -18.3309314
  42.7539526  16.6455398  -1.2309314  43.3529526  16.3495398  -0.5449314
  42.2789526  15.8565398  -1.4909314  43.0009526  14.7345398   3.6930686
  42.9539526  13.7785398   3.6780686  42.3479526  15.0175398   3.0540686
  40.6449526  21.2525398 -16.2079314  39.8119526  20.8845398 -15.9109314
  40.5519526  22.1955398 -16.0719314  40.5629526  18.0735398   7.6640686
  40.7989526  17.1875398   7.3900686  41.1879526  18.2855398   8.3570686
  42.7859526  15.0315398   8.4820686  43.3629526  15.2545398   7.7520686
  43.3199526  15.1775398   9.2630686  39.7259526  17.6585398  -6.8279314
  39.2149526  18.2795398  -6.3099314  39.0739526  17.0775398  -7.2179314
  44.2449526  15.6105398   6.0580686  43.7639526  15.4965398   5.2390686
  44.3639526  16.5565398   6.1370686  42.2469526  19.9395398  -4.3649314
  41.4829526  19.5195398  -3.9709314  42.9969526  19.4935398  -3.9699314
  41.4639526  10.5055398   3.1090686  42.1349526  11.0575398   3.5120686
  40.8439526  11.1245398   2.7250686  44.8919526  25.0145398 -12.4189314
  44.7049526  24.0845398 -12.2939314  44.9229526  25.3755398 -11.5329314
  38.8649526   9.0965398   9.4530686  39.6649526   9.5425398   9.7310686
  38.1979526   9.7835398   9.4450686  40.1289526  36.4265398   9.0870686
  40.3559526  36.2325398   8.1770686  39.9949526  37.3735398   9.1040686
  45.9129526  27.7495398   9.3900686  46.1499526  27.2355398  10.1620686
  45.3179526  28.4215398   9.7220686  45.2489526  19.8785398  10.0340686
  46.1969526  20.0085398  10.0420686  45.0799526  19.2925398  10.7720686
  44.5009526  16.7175398   3.0560686  44.0939526  15.8595398   3.1740686
  43.9879526  17.1335398   2.3630686  43.0489526  10.9565398  10.1690686
  42.4929526  10.8845398  10.9440686  42.5649526  10.4985398   9.4820686
  45.2789526  25.6235398   4.1070686  46.1589526  25.5385398   4.4730686
  45.0649526  26.5515398   4.2080686  44.3009526  16.4765398 -14.0969314
  43.7319526  17.2285398 -13.9319314  45.0589526  16.6195398 -13.5309314
  41.9849526  27.3235398 -12.9919314  42.3819526  28.1685398 -12.7789314
  42.4989526  26.9965398 -13.7299314  37.9679526  37.6035398 -18.2659314
  38.2679526  38.1155398 -19.0169314  38.1279526  36.6935398 -18.5159314
  43.9989526  13.0405398  -4.0119314  43.5169526  13.5925398  -4.6269314
  43.3719526  12.8555398  -3.3129314  38.7069526  18.1315398   5.7230686
  39.4159526  18.0075398   6.3540686  39.1429526  18.4385398   4.9290686
  42.2049526  12.4765398   7.3900686  41.2769526  12.6115398   7.1990686
  42.4389526  13.2005398   7.9700686  41.6579526  21.2315398   3.8620686
  41.6169526  22.1775398   4.0040686  41.9739526  21.1385398   2.9630686
  44.3009526  20.2855398   4.9110686  43.4599526  20.6065398   4.5830686
  44.6499526  21.0115398   5.4270686  37.2569526  17.2785398   0.8880686
  36.9729526  16.4755398   1.3240686  37.0709526  17.9735398   1.5190686
  40.6469526  15.6615398   6.5610686  41.4469526  15.1425398   6.6450686
  40.5009526  15.7255398   5.6170686  38.0809526  22.6505398  10.1560686
  38.6289526  23.4145398   9.9740686  38.0389526  22.6075398  11.1110686
  37.9649526  11.8885398   4.4770686  37.6459526  11.0115398   4.2660686
  38.7279526  12.0095398   3.9110686  45.0369526  15.5675398   0.2530686
  45.0139526  14.6115398   0.2260686  45.8769526  15.7765398   0.6630686
  38.2119526  14.5245398  -9.8419314  37.7389526  14.7915398 -10.6299314
  39.0109526  15.0515398  -9.8509314  39.7649526  27.2535398  -8.5069314
  40.2739526  27.8005398  -7.9089314  40.1449526  27.4235398  -9.3689314
  39.2579526  13.1475398  -7.3929314  38.7819526  13.4885398  -8.1499314
  38.9339526  13.6615398  -6.6539314  42.0899526  37.9905398  -1.2389314
  42.2239526  38.1395398  -0.3029314  41.7049526  38.8065398  -1.5589314
  40.4169526  33.0755398  -0.1149314  41.2959526  32.6995398  -0.1599314
  40.5069526  33.9435398  -0.5079314  37.1279526  29.9485398 -14.7839314
  38.0209526  29.6255398 -14.8999314  36.5799526  29.3075398 -15.2379314
  41.7679526  30.9605398  -2.8979314  42.3669526  31.7065398  -2.8669314
  42.3009526  30.2145398  -2.6219314  42.8879526  29.8675398 -12.7179314
  43.5439526  30.2505398 -12.1359314  42.0719526  29.9055398 -12.2189314
  39.3999526  27.2575398 -13.9589314  38.7529526  27.0965398 -13.2709314
  40.2449526  27.1225398 -13.5299314  43.5859526  27.3745398 -17.1029314
  42.9939526  27.9895398 -17.5359314  43.0869526  26.5595398 -17.0479314
  42.9419526  35.8585398  10.4560686  42.3459526  36.0215398   9.7240686
  42.4519526  35.2795398  11.0400686  44.3549526  31.5595398 -16.0909314
  44.6629526  32.3225398 -16.5789314  44.7359526  31.6625398 -15.2189314
  41.3629526  28.6175398  -6.9139314  40.9339526  29.4265398  -6.6369314
  42.1239526  28.5405398  -6.3379314  40.3369526  23.9545398 -16.2729314
  40.7259526  24.6125398 -16.8489314  40.8899526  23.9625398 -15.4919314
  41.2689526  26.2515398 -10.5539314  41.3209526  26.6325398 -11.4299314
  40.6819526  25.5025398 -10.6519314  43.7949526  33.3375398 -12.4589314
  44.4039526  32.8545398 -13.0169314  43.1419526  33.6895398 -13.0639314
  37.8709526  26.2485398 -16.4129314  38.4649526  26.3035398 -15.6639314
  38.3959526  26.5395398 -17.1579314  37.7049526  23.2135398 -17.0499314
  37.0759526  23.9245398 -16.9309314  38.5559526  23.6135398 -16.8729314
  44.7679526  24.1075398  -1.2559314  44.4709526  24.0765398  -0.3469314
  45.5449526  23.5485398  -1.2749314  41.4549526  31.0325398  -8.5779314
  40.9159526  31.4825398  -7.9269314  42.1459526  31.6595398  -8.7919314
  40.3979526  30.8195398  -5.3089314  40.7349526  31.5755398  -5.7899314
  40.9079526  30.8025398  -4.4989314  38.0819526   8.4655398   6.2540686
  38.8669526   8.5365398   5.7110686  38.3319526   8.8595398   7.0900686
  37.8719526  25.1575398  -3.5659314  37.2679526  24.7235398  -2.9629314
  37.3969526  25.9325398  -3.8649314  43.8289526  32.6485398  -9.4979314
  43.9289526  33.5565398  -9.2129314  43.9589526  32.6785398 -10.4459314
  40.4209526  27.8435398  -1.2819314  39.5319526  28.0365398  -0.9829314
  40.9849526  28.1475398  -0.5719314  40.1959526  30.4165398 -11.3029314
  40.5089526  31.1735398 -10.8069314  39.2419526  30.4935398 -11.2819314
  44.1519526  29.9205398 -10.2059314  44.3529526  30.6825398  -9.6619314
  43.6389526  29.3475398  -9.6359314  40.2639526   9.0535398 -14.9089314
  41.2189526   9.1205398 -14.9149314  39.9679526   9.8785398 -14.5249314
  45.0839526  29.7925398  -4.8229314  45.9819526  29.8025398  -4.4919314
  45.0679526  30.4725398  -5.4959314  45.3309526  28.1955398   5.7800686
  45.1379526  27.6555398   6.5470686  46.2859526  28.1945398   5.7200686
  45.0559526  31.6715398   5.1170686  45.7209526  31.1715398   4.6440686
  45.0449526  32.5255398   4.6830686  44.2899526  10.6555398   0.3140686
  44.8419526   9.8895398   0.1570686  43.5389526  10.3145398   0.8010686
  43.8589526  36.9435398  -5.2499314  44.4499526  37.6765398  -5.0759314
  43.0539526  37.1685398  -4.7839314  38.5439526  38.1815398  -3.5899314
  38.5229526  39.1325398  -3.4789314  39.3749526  38.0105398  -4.0329314
  43.9229526  29.0125398  -1.5929314  44.5409526  28.3155398  -1.8119314
  43.3649526  28.6345398  -0.9129314  43.2229526  31.9765398   0.6170686
  43.4169526  31.7595398  -0.2949314  44.0499526  32.3125398   0.9650686
  38.7709526  36.9205398 -11.9009314  39.4399526  36.4115398 -12.3569314
  37.9859526  36.3745398 -11.9389314  40.4439526  33.1795398 -10.4169314
  40.8459526  34.0155398 -10.1819314  39.6079526  33.4195398 -10.8179314
  38.5029526  35.2255398 -19.0869314  39.2789526  35.5385398 -19.5519314
  38.3249526  34.3665398 -19.4689314  38.6019526  27.5305398  -5.8769314
  37.9119526  27.9155398  -6.4169314  39.0949526  26.9735398  -6.4799314
  41.0349526  35.3375398  -1.3369314  40.8529526  35.2905398  -2.2749314
  41.5429526  36.1425398  -1.2319314  40.5309526  14.6515398 -17.5779314
  41.0929526  15.3185398 -17.9729314  41.0659526  14.2695398 -16.8819314
  44.2849526  30.9455398   8.6300686  43.6979526  30.8355398   7.8820686
  45.1639526  30.8705398   8.2570686  37.2269526  12.0295398 -13.6459314
  37.0819526  11.1155398 -13.8879314  37.1629526  12.0375398 -12.6909314
  42.1449526   9.4705398   8.1340686  42.3269526  10.2795398   7.6570686
  42.0139526   8.8135398   7.4500686  41.8379526  34.9005398 -17.4019314
  41.9209526  34.1795398 -16.7779314  41.0179526  35.3315398 -17.1639314
  44.0849526  24.4655398   1.2510686  43.5109526  24.2075398   1.9730686
  44.0839526  25.4225398   1.2750686  42.6079526  29.3345398 -18.8489314
  41.7029526  29.3735398 -19.1589314  42.9589526  30.2075398 -19.0229314
  41.0099526  32.2035398   8.4210686  40.8649526  31.2675398   8.2810686
  41.6969526  32.2435398   9.0860686  42.7169526  34.0025398   2.5840686
  43.2249526  34.3975398   1.8750686  42.3569526  33.2015398   2.2040686
  45.5499526  11.0245398   5.4460686  45.1819526  10.2825398   5.9250686
  45.5589526  11.7395398   6.0820686  40.6599526  29.4435398   8.4480686
  39.7859526  29.3305398   8.0750686  41.2539526  29.1315398   7.7670686
  44.8909526  26.0775398   7.4830686  45.0409526  26.5635398   8.2940686
  45.7609526  25.7835398   7.2140686  45.1019526  34.0835398   9.6260686
  44.4369526  34.4685398  10.1970686  44.6589526  33.9665398   8.7860686
  36.9879526  34.1625398   3.4720686  36.8749526  33.3665398   3.9910686
  37.9279526  34.2025398   3.2950686  42.5759526  25.4985398   5.9760686
  42.4669526  24.5915398   6.2640686  43.4339526  25.7555398   6.3140686
  41.9589526  30.4765398 -14.9899314  42.5739526  30.8075398 -15.6449314
  42.4779526  30.4055398 -14.1879314  38.2739526  32.3385398 -17.2009314
  38.7939526  31.8425398 -17.8329314  38.7119526  32.1925398 -16.3629314
  38.3659526  29.3915398   2.8430686  38.6159526  28.7235398   2.2050686
  39.0519526  30.0555398   2.7770686  44.5029526  34.6725398   0.5740686
  44.5149526  35.1195398  -0.2719314  45.3319526  34.9175398   0.9860686
  38.9999526  34.5135398   6.9550686  38.1199526  34.8515398   6.7930686
  38.8999526  33.9375398   7.7130686  43.9949526  38.1295398   4.9190686
  44.4949526  37.5955398   5.5360686  44.6269526  38.3705398   4.2420686
  45.9849526  30.1415398   0.3740686  45.3209526  30.0615398  -0.3109314
  46.0759526  29.2555398   0.7250686  45.3429526   9.7375398   8.6600686
  44.6859526   9.8785398   9.3420686  45.2789526   8.8035398   8.4560686
  44.3689526  34.8815398   6.8120686  43.4439526  34.7555398   6.5990686
  44.8099526  34.8965398   5.9630686  44.2299526  36.0175398  -1.7989314
  43.9189526  35.7465398  -2.6629314  43.6309526  36.7165398  -1.5369314
  45.1229526  37.6385398  -8.9459314  45.7019526  37.3165398  -8.2559314
  44.6009526  38.3195398  -8.5219314  45.5129526  37.0575398   8.3140686
  45.1869526  36.4735398   7.6290686  45.1109526  36.7305398   9.1190686
  42.5919526   8.6465398   1.4140686  42.2419526   9.2735398   2.0470686
  42.4539526   7.7915398   1.8230686  37.1509526  15.1985398  -1.8999314
  37.8689526  15.8025398  -1.7109314  36.8079526  15.4915398  -2.7439314
  37.5529526  31.3615398  -6.2249314  37.3029526  30.4535398  -6.3949314
  38.4499526  31.3065398  -5.8959314  42.7059526  12.3865398  -1.5209314
  43.2199526  11.8855398  -0.8889314  42.1999526  11.7265398  -1.9959314
  42.5209526  17.3955398  -6.1369314  41.6349526  17.3145398  -5.7849314
  42.4969526  18.1935398  -6.6659314  38.3329526  33.8525398  -8.3939314
  38.9739526  33.2695398  -8.8009314  37.5309526  33.3325398  -8.3459314
  37.6489526  11.9075398 -17.3769314  37.9939526  12.4125398 -18.1129314
  36.7099526  11.8405398 -17.5509314  38.7859526  23.0335398 -13.8289314
  38.1639526  22.9835398 -14.5559314  38.8519526  22.1345398 -13.5079314
  37.2639526  20.3035398  -7.8769314  37.5309526  20.0755398  -6.9869314
  37.9899526  20.8235398  -8.2199314  41.8829526  34.2835398 -14.2349314
  41.4429526  35.1075398 -14.0229314  41.1699526  33.6655398 -14.3949314
  37.1209526  14.8055398 -12.1939314  36.5429526  14.3645398 -12.8179314
  37.7989526  15.2075398 -12.7379314  42.5009526  10.1095398  -5.3819314
  43.4429526  10.0165398  -5.5289314  42.2099526  10.7155398  -6.0629314
  45.6399526  12.8695398  -0.0549314  46.2469526  12.5665398   0.6210686
  44.9049526  12.2575398  -0.0079314  41.2749526  27.7315398  -3.9209314
  40.3649526  27.9295398  -4.1419314  41.3269526  27.8635398  -2.9749314
  39.7859526  12.5605398   2.3880686  39.3959526  12.0575398   1.6730686
  40.0899526  13.3685398   1.9730686  39.7269526  17.3975398 -10.8489314
  40.1499526  17.5995398 -10.0139314  38.8609526  17.7985398 -10.7819314
  39.0569526  16.7225398  -1.0559314  39.9079526  17.1265398  -0.8879314
  38.4989526  17.0325398  -0.3429314  43.1559526  11.9755398 -16.1479314
  42.8029526  12.8395398 -15.9339314  42.4659526  11.5565398 -16.6629314
  42.9769526  18.7515398 -14.1189314  42.7259526  19.3075398 -13.3809314
  42.9629526  19.3365398 -14.8759314  41.1889526  25.7045398   1.4210686
  40.6479526  26.1005398   0.7380686  41.8749526  26.3515398   1.5890686
  38.3449526  15.2815398  -5.3199314  37.4569526  15.2085398  -4.9729314
  38.6379526  16.1515398  -5.0499314  38.2939526  26.8025398 -11.3239314
  38.8769526  26.9305398 -10.5749314  37.5039526  26.4125398 -10.9499314
  42.2589526  22.9895398  -3.1049314  42.9309526  22.9075398  -2.4289314
  41.5099526  23.3785398  -2.6539314  41.4959526  19.3405398 -18.4349314
  40.7899526  19.9135398 -18.1359314  42.2139526  19.5045398 -17.8229314
  45.6039526  27.3955398 -14.7889314  45.5349526  26.4655398 -14.5729314
  44.9639526  27.5275398 -15.4879314  38.0049526  20.6685398 -15.9699314
  37.8569526  21.3305398 -16.6449314  37.3349526  20.0045398 -16.1339314
  38.0689526  20.2545398 -13.0169314  37.8959526  20.0395398 -13.9339314
  37.9279526  19.4325398 -12.5469314  39.6929526  24.8555398   8.1220686
  39.4589526  24.5125398   7.2600686  40.6249526  24.6555398   8.2150686
  38.0659526  22.3935398   7.3130686  38.3679526  22.4805398   8.2170686
  38.8339526  22.0855398   6.8320686  37.7729526  12.9515398   7.0970686
  37.9119526  12.8055398   6.1620686  37.9669526  13.8795398   7.2270686
  40.0069526  18.7265398   3.4370686  39.4159526  19.2945398   2.9420686
  40.5899526  19.3305398   3.8970686  39.7389526  15.5425398   3.8470686
  40.0059526  16.3545398   3.4150686  39.1939526  15.0945398   3.1990686
  40.3249526  27.1685398   5.3080686  39.6999526  26.4445398   5.3320686
  41.1729526  26.7615398   5.4850686  42.2729526  23.7155398   9.2480686
  42.3399526  23.1165398   8.5050686  43.1809526  23.8875398   9.4990686
  38.8039526  13.2185398 -15.2559314  38.4829526  12.8015398 -16.0559314
  38.1759526  12.9595398 -14.5819314  43.2519526  30.0015398   5.8960686
  43.7129526  30.7795398   5.5830686  43.8909526  29.2935398   5.8100686
  39.6069526  12.2615398   9.5110686  39.4299526  13.2005398   9.5540686
  39.0949526  11.9535398   8.7630686  39.3439526  24.4325398   5.2290686
  38.5829526  23.9395398   4.9240686  40.0969526  23.9225398   4.9300686
  37.2109526  15.6445398   5.5530686  38.0909526  15.7785398   5.1990686
  36.7679526  16.4825398   5.4180686  42.3679526  20.0265398 -11.9349314
  41.9349526  19.3935398 -11.3609314  42.6649526  20.7195398 -11.3459314
  43.1419526  14.5095398  -6.4929314  43.8519526  14.3965398  -7.1249314
  43.0699526  15.4565398  -6.3789314  37.5989526  18.2365398  -5.5849314
  36.9169526  18.2515398  -4.9129314  37.3149526  17.5595398  -6.1999314
  40.2269526  24.3795398  -2.0409314  40.3779526  25.2065398  -1.5839314
  39.4139526  24.5185398  -2.5269314  36.9639526  17.6985398   7.9670686
  37.5299526  17.9675398   7.2430686  37.5429526  17.2195398   8.5600686
  41.0039526  22.7865398   0.6130686  40.4139526  23.5165398   0.7980686
  40.9599526  22.6775398  -0.3369314  42.5509526  22.7875398   6.6540686
  41.9409526  22.1525398   6.2770686  43.3579526  22.2925398   6.7910686
  43.2659526  12.1165398   4.3780686  44.1219526  11.9045398   4.7510686
  42.7169526  12.3155398   5.1360686  37.7409526  22.5945398   4.0420686
  36.8019526  22.4185398   4.0980686  38.0709526  21.9415398   3.4250686
  39.1439526  20.9755398   2.1890686  39.8679526  21.5195398   1.8800686
  38.4089526  21.2095398   1.6230686  41.7289526  16.6765398 -19.1219314
  41.6399526  17.6125398 -18.9429314  42.6699526  16.5105398 -19.0669314
  40.6689526  13.7645398  -4.7599314  41.3769526  14.2175398  -5.2189314
  39.9369526  14.3815398  -4.7789314  39.5239526  37.9185398   1.8390686
  38.8569526  37.2335398   1.8210686  39.2339526  38.5535398   1.1840686
  38.7999526  13.0295398  -2.1209314  38.3579526  12.5835398  -2.8439314
  38.1709526  13.6875398  -1.8249314  40.8759526  11.6095398 -13.9419314
  41.8299526  11.6865398 -13.9089314  40.5929526  12.3545398 -14.4719314
  38.1229526  34.0745398  -5.5119314  37.2989526  33.7105398  -5.1899314
  38.3209526  33.5625398  -6.2959314  39.0239526  38.1585398  -0.8409314
  39.3369526  37.2545398  -0.8279314  38.6009526  38.2535398  -1.6949314
  38.2459526  26.9315398   0.5570686  37.3609526  27.2515398   0.3830686
  38.1249526  26.0165398   0.8120686  39.1699526  36.8045398 -15.9749314
  38.7379526  37.2455398 -16.7059314  39.5569526  37.5145398 -15.4619314
  39.8259526  31.7125398   2.2210686  39.9789526  32.0815398   1.3520686
  39.6369526  32.4705398   2.7740686  40.1429526  35.2385398  -3.9109314
  39.5019526  34.7645398  -4.4399314  40.2059526  36.0995398  -4.3239314
  38.2979526  32.8495398   9.4930686  37.8419526  32.0595398   9.7820686
  39.2089526  32.5755398   9.3850686  37.9729526  24.3635398   1.5130686
  38.1099526  24.1175398   2.4280686  37.1329526  23.9665398   1.2810686
  44.2239526  32.1005398  -1.9659314  44.0499526  32.9125398  -2.4399314
  44.5729526  31.5045398  -2.6289314  41.9029526  29.0755398   0.8510686
  41.9889526  30.0035398   1.0690686  41.9769526  28.6235398   1.6910686
  39.9699526  35.9335398  -7.2159314  39.1139526  35.5085398  -7.2679314
  40.3579526  35.8005398  -8.0799314  37.2609526  34.3425398 -15.8409314
  37.6929526  33.8005398 -16.5019314  37.9339526  34.9635398 -15.5629314
  37.7129526  33.5555398   0.3430686  38.6409526  33.3385398   0.4300686
  37.6809526  34.1865398  -0.3749314  38.0109526  38.4295398  -9.5349314
  38.5089526  37.8685398 -10.1309314  37.1679526  38.5535398  -9.9709314
  37.2189526   8.7495398 -13.3389314  37.2239526   8.6775398 -14.2939314
  37.7639526   8.0215398 -13.0409314  44.9359526  13.1245398   9.3480686
  45.3109526  13.2095398  10.2240686  44.4529526  12.2985398   9.3720686
  37.6409526  31.5035398 -11.0969314  37.2759526  31.9085398 -11.8829314
  36.9469526  31.5815398 -10.4419314  38.5739526  28.9835398   6.6380686
  39.0809526  28.3545398   6.1240686  37.9679526  29.3745398   6.0080686
  39.9329526  34.1825398   3.6660686  40.8589526  33.9675398   3.5510686
  39.9379526  35.0385398   4.0950686  40.8859526  11.1105398 -17.9469314
  40.2489526  11.5685398 -18.4959314  40.3589526  10.5245398 -17.4049314
  40.2629526  38.1685398   4.3820686  39.9849526  37.9705398   3.4880686
  40.6989526  39.0185398   4.3160686  39.7939526  29.6315398 -18.9479314
  38.9529526  30.0895398 -18.9389314  39.9799526  29.4915398 -19.8769314
  42.1289526  28.7305398   3.8350686  42.5229526  29.2765398   4.5150686
  41.3229526  28.3985398   4.2310686  39.1539526  10.9125398   0.1570686
  39.1259526  11.5715398  -0.5369314  38.4819526  10.2765398  -0.0879314
  37.9589526  14.6875398 -18.5779314  38.2879526  15.1415398 -19.3539314
  38.7029526  14.6685398 -17.9769314  41.6529526  34.3325398   6.4910686
  40.7179526  34.4985398   6.6080686  41.7909526  33.4615398   6.8650686
  41.2109526  22.1455398  24.2780686  41.1109526  22.8945398  24.8650686
  41.7559526  21.5285398  24.7660686  44.0539526  35.7445398  14.6500686
  43.3489526  35.1875398  14.9800686  44.0789526  36.4835398  15.2580686
  43.8009526  27.1805398  31.9870686  43.4739526  27.8355398  32.6050686
  44.7429526  27.3435398  31.9420686  42.9689526  15.4395398  19.2180686
  42.5039526  14.6425398  18.9650686  42.9929526  15.9665398  18.4190686
  42.7049526  22.1565398  19.4670686  42.8549526  22.1875398  20.4120686
  41.8439526  22.5565398  19.3470686  39.6229526  15.6335398  39.3640686
  40.3639526  16.0455398  39.8100686  39.9529526  15.4305398  38.4890686
  39.4789526  29.2405398  14.3630686  40.2719526  29.7765398  14.3640686
  39.7629526  28.3905398  14.6990686  41.5219526  37.2565398  36.7510686
  41.9879526  36.5795398  36.2600686  40.8739526  37.5975398  36.1340686
  38.6789526  16.3385398  15.6550686  39.0029526  15.5505398  15.2200686
  39.4649526  16.7645398  15.9980686  41.4679526  10.1655398  27.1550686
  40.5369526  10.3025398  26.9810686  41.8579526  10.0415398  26.2900686
  43.9649526  35.3965398  20.2750686  44.1819526  36.2795398  20.5730686
  44.1069526  35.4205398  19.3290686  45.4439526  14.8545398  14.0190686
  46.1079526  15.3765398  13.5690686  45.0779526  15.4475398  14.6760686
  44.8839526  22.2405398  17.6090686  44.2489526  21.9795398  18.2760686
  45.4549526  21.4785398  17.5100686  44.7389526  25.7715398  23.0190686
  44.2229526  26.3645398  23.5660686  44.7039526  24.9315398  23.4770686
  44.2979526  16.6735398  40.3690686  44.4499526  17.2125398  41.1450686
  45.1549526  16.6115398  39.9480686  41.7769526  12.0815398  22.8640686
  40.9239526  12.4205398  22.5900686  42.3209526  12.8615398  22.9710686
  42.0069526  22.5505398  16.5710686  42.3329526  21.7515398  16.9860686
  41.4859526  22.9785398  17.2500686  40.0899526  32.1915398  15.5100686
  39.6499526  31.6015398  16.1220686  40.8809526  31.7205398  15.2480686
  43.5489526  27.5175398  24.7280686  42.8869526  27.4265398  25.4130686
  44.1799526  28.1415398  25.0860686  44.4669526  37.2825398  12.1970686
  43.7709526  36.7575398  11.8020686  44.3769526  37.1305398  13.1380686
  43.0969526   9.3505398  14.9800686  43.9459526   8.9415398  14.8110686
  43.2509526  10.2855398  14.8480686  45.7529526  31.5555398  16.2440686
  46.2539526  31.1735398  16.9650686  46.3949526  31.6805398  15.5450686
  39.8539526  18.7915398  26.4560686  39.2879526  19.2635398  25.8450686
  39.2479526  18.3385398  27.0430686  40.8829526  14.3995398  29.0630686
  41.6259526  13.8645398  28.7850686  40.1319526  14.0245398  28.6020686
  44.3549526  13.9575398  21.2870686  43.7399526  14.5355398  20.8350686
  44.7309526  13.4165398  20.5930686  41.5799526  12.7855398  19.1280686
  40.9089526  12.1475398  19.3680686  41.8419526  12.5375398  18.2420686
  41.0859526  18.5025398  29.7530686  41.7959526  17.9595398  29.4090686
  41.2259526  19.3615398  29.3540686  43.2879526  37.2565398  17.9090686
  42.7129526  37.7925398  18.4540686  44.0289526  37.8275398  17.7060686
  44.4469526  23.4185398  24.6230686  43.8309526  23.1315398  25.2970686
  44.8019526  22.6055398  24.2620686  38.6659526  10.3075398  22.8960686
  38.7599526   9.8685398  22.0510686  38.8709526  11.2245398  22.7150686
  42.9679526  19.6045398  38.8700686  43.7749526  19.6795398  39.3780686
  42.2859526  19.4465398  39.5230686  41.7969526  23.8905398  33.6450686
  41.6539526  24.3705398  32.8290686  42.0609526  24.5615398  34.2740686
  40.0049526  24.9255398  24.8800686  40.6179526  25.5755398  25.2220686
  39.3349526  24.8455398  25.5590686  42.1559526  20.6685398  28.6620686
  42.9219526  20.1865398  28.3500686  41.7789526  21.0565398  27.8720686
  41.5599526  15.4615398  31.6120686  41.4659526  15.1875398  30.6990686
  41.5499526  16.4175398  31.5780686  41.4469526  33.1195398  23.6500686
  42.2719526  33.5515398  23.4270686  40.9639526  33.7705398  24.1580686
  43.1759526  23.3285398  21.9600686  42.5569526  23.8475398  21.4470686
  43.0859526  23.6625398  22.8530686  45.5919526  12.6085398  19.1290686
  45.9529526  12.9245398  18.3010686  46.0709526  11.7985398  19.3060686
  42.9879526  34.6435398  26.3010686  42.0669526  34.8715398  26.1760686
  43.3459526  34.5975398  25.4150686  41.2619526  16.5105398  17.0750686
  40.6899526  16.8015398  17.7850686  41.4129526  17.2965398  16.5500686
  40.6369526  37.6655398  24.9050686  40.5429526  37.2015398  24.0730686
  41.1679526  38.4335398  24.6930686  44.7359526  24.0595398  11.0780686
  45.2279526  23.3765398  11.5330686  45.2399526  24.8595398  11.2280686
  42.8319526  20.0205398  22.8030686  42.5999526  20.2395398  23.7060686
  43.6749526  20.4505398  22.6620686  38.2899526  26.2825398  39.9660686
  38.9949526  26.5685398  40.5460686  38.7369526  25.8405398  39.2450686
  41.1709526  19.4425398  20.7080686  40.4479526  20.0535398  20.8450686
  41.7769526  19.6225398  21.4280686  39.5599526  10.7395398  20.0030686
  39.0109526  11.4775398  19.7360686  38.9719526   9.9845398  19.9840686
  40.1099526  24.5605398  22.1130686  40.0649526  24.6305398  23.0670686
  40.1989526  25.4645398  21.8100686  45.1349526  26.7545398  27.7870686
  44.9029526  26.0475398  28.3890686  45.3319526  26.3115398  26.9620686
  45.1099526   9.5215398  24.5800686  45.2769526  10.2745398  24.0130686
  45.6749526   9.6645398  25.3410686  40.9459526  36.7375398  16.6270686
  40.6229526  37.5925398  16.3420686  41.8299526  36.9095398  16.9490686
  39.2129526  30.6015398  28.3770686  39.9319526  30.2795398  27.8350686
  39.3969526  31.5335398  28.4920686  42.8929526  24.5485398  14.8290686
  43.6849526  24.1125398  14.5150686  42.7079526  24.1315398  15.6710686
  43.8249526  18.8795398  27.4290686  44.7609526  18.6825398  27.3910686
  43.4209526  18.0685398  27.7380686  45.9779526  28.8865398  12.1160686
  45.3729526  28.2485398  12.4940686  45.8619526  29.6725398  12.6500686
  45.2209526  25.7925398  20.2010686  45.2019526  26.7105398  19.9280686
  45.0869526  25.8215398  21.1480686  45.8719526  23.2975398  21.0290686
  44.9889526  23.1425398  21.3660686  45.8199526  24.1565398  20.6090686
  44.8179526  21.7225398  37.2850686  44.5899526  21.2055398  38.0580686
  45.5159526  22.3055398  37.5820686  41.5219526   8.4405398  19.6690686
  42.0439526   8.7995398  20.3860686  40.7979526   9.0585398  19.5660686
  40.2879526  23.7575398  18.5120686  39.6899526  23.8845398  17.7760686
  39.8159526  23.1775398  19.1080686  43.4409526  21.0005398  31.3190686
  42.8539526  21.1065398  30.5700686  43.8979526  21.8385398  31.3860686
  39.2839526  10.9035398  25.5370686  39.0759526  10.4855398  24.7010686
  39.8489526  11.6405398  25.3020686  42.3789526  25.0675398  11.7610686
  43.2879526  24.8715398  11.9900686  42.1849526  24.4815398  11.0300686
  43.0509526   9.7665398  21.3560686  43.7989526  10.3615398  21.4000686
  42.2919526  10.3205398  21.5400686  43.1719526  20.2265398  13.6430686
  42.3519526  20.7195398  13.6060686  43.8099526  20.8485398  13.9920686
  43.4719526  12.3485398  16.7950686  43.9139526  12.6315398  17.5950686
  43.8669526  12.8785398  16.1020686  43.5219526  17.7115398  20.1850686
  42.7439526  18.2665398  20.1280686  43.2829526  16.9135398  19.7130686
  42.9849526  27.8195398  21.0140686  42.3219526  28.0645398  21.6590686
  42.5129526  27.2835398  20.3770686  45.0919526  22.2715398  14.8040686
  45.7739526  22.8855398  14.5330686  45.0159526  22.3985398  15.7500686
  45.6819526  28.4785398  22.1740686  44.7819526  28.1535398  22.1390686
  45.5909526  29.4255398  22.2820686  41.1279526  35.7265398  20.4700686
  42.0629526  35.5185398  20.4720686  41.0899526  36.6575398  20.2520686
  44.9139526  18.1755398  12.4190686  45.7889526  17.8655398  12.6510686
  44.4599526  18.2645398  13.2570686  42.4819526  18.3075398  32.0610686
  41.5779526  18.5545398  32.2550686  42.9719526  19.1275398  32.1160686
  42.4659526  14.3215398  15.0570686  43.0279526  15.0635398  14.8340686
  42.2169526  14.4745398  15.9690686  40.1329526  21.3435398  36.1260686
  40.6249526  21.1955398  35.3190686  39.8219526  20.4745398  36.3810686
  42.7639526  32.0905398  10.5990686  43.1849526  32.3395398  11.4220686
  43.4739526  31.7355398  10.0650686  40.1179526  26.7385398  11.9500686
  40.2469526  27.6865398  11.9790686  40.9629526  26.3895398  11.6690686
  42.7539526  16.6455398  28.7690686  43.3529526  16.3495398  29.4550686
  42.2789526  15.8565398  28.5090686  43.0009526  14.7345398  33.6930686
  42.9539526  13.7785398  33.6780686  42.3479526  15.0175398  33.0540686
  40.6449526  21.2525398  13.7920686  39.8119526  20.8845398  14.0890686
  40.5519526  22.1955398  13.9280686  40.5629526  18.0735398  37.6640686
  40.7989526  17.1875398  37.3900686  41.1879526  18.2855398  38.3570686
  42.7859526  15.0315398  38.4820686  43.3629526  15.2545398  37.7520686
  43.3199526  15.1775398  39.2630686  39.7259526  17.6585398  23.1720686
  39.2149526  18.2795398  23.6900686  39.0739526  17.0775398  22.7820686
  44.2449526  15.6105398  36.0580686  43.7639526  15.4965398  35.2390686
  44.3639526  16.5565398  36.1370686  42.2469526  19.9395398  25.6350686
  41.4829526  19.5195398  26.0290686  42.9969526  19.4935398  26.0300686
  41.4639526  10.5055398  33.1090686  42.1349526  11.0575398  33.5120686
  40.8439526  11.1245398  32.7250686  44.8919526  25.0145398  17.5810686
  44.7049526  24.0845398  17.7060686  44.9229526  25.3755398  18.4670686
  38.8649526   9.0965398  39.4530686  39.6649526   9.5425398  39.7310686
  38.1979526   9.7835398  39.4450686  40.1289526  36.4265398  39.0870686
  40.3559526  36.2325398  38.1770686  39.9949526  37.3735398  39.1040686
  45.9129526  27.7495398  39.3900686  46.1499526  27.2355398  40.1620686
  45.3179526  28.4215398  39.7220686  45.2489526  19.8785398  40.0340686
  46.1969526  20.0085398  40.0420686  45.0799526  19.2925398  40.7720686
  44.5009526  16.7175398  33.0560686  44.0939526  15.8595398  33.1740686
  43.9879526  17.1335398  32.3630686  43.0489526  10.9565398  40.1690686
  42.4929526  10.8845398  40.9440686  42.5649526  10.4985398  39.4820686
  45.2789526  25.6235398  34.1070686  46.1589526  25.5385398  34.4730686
  45.0649526  26.5515398  34.2080686  44.3009526  16.4765398  15.9030686
  43.7319526  17.2285398  16.0680686  45.0589526  16.6195398  16.4690686
  41.9849526  27.3235398  17.0080686  42.3819526  28.1685398  17.2210686
  42.4989526  26.9965398  16.2700686  37.9679526  37.6035398  11.7340686
  38.2679526  38.1155398  10.9830686  38.1279526  36.6935398  11.4840686
  43.9989526  13.0405398  25.9880686  43.5169526  13.5925398  25.3730686
  43.3719526  12.8555398  26.6870686  38.7069526  18.1315398  35.7230686
  39.4159526  18.0075398  36.3540686  39.1429526  18.4385398  34.9290686
  42.2049526  12.4765398  37.3900686  41.2769526  12.6115398  37.1990686
  42.4389526  13.2005398  37.9700686  41.6579526  21.2315398  33.8620686
  41.6169526  22.1775398  34.0040686  41.9739526  21.1385398  32.9630686
  44.3009526  20.2855398  34.9110686  43.4599526  20.6065398  34.5830686
  44.6499526  21.0115398  35.4270686  37.2569526  17.2785398  30.8880686
  36.9729526  16.4755398  31.3240686  37.0709526  17.9735398  31.5190686
  40.6469526  15.6615398  36.5610686  41.4469526  15.1425398  36.6450686
  40.5009526  15.7255398  35.6170686  38.0809526  22.6505398  40.1560686
  38.6289526  23.4145398  39.9740686  38.0389526  22.6075398  41.1110686
  37.9649526  11.8885398  34.4770686  37.6459526  11.0115398  34.2660686
  38.7279526  12.0095398  33.9110686  45.0369526  15.5675398  30.2530686
  45.0139526  14.6115398  30.2260686  45.8769526  15.7765398  30.6630686
  38.2119526  14.5245398  20.1580686  37.7389526  14.7915398  19.3700686
  39.0109526  15.0515398  20.1490686  39.7649526  27.2535398  21.4930686
  40.2739526  27.8005398  22.0910686  40.1449526  27.4235398  20.6310686
  39.2579526  13.1475398  22.6070686  38.7819526  13.4885398  21.8500686
  38.9339526  13.6615398  23.3460686  42.0899526  37.9905398  28.7610686
  42.2239526  38.1395398  29.6970686  41.7049526  38.8065398  28.4410686
  40.4169526  33.0755398  29.8850686  41.2959526  32.6995398  29.8400686
  40.5069526  33.9435398  29.4920686  37.1279526  29.9485398  15.2160686
  38.0209526  29.6255398  15.1000686  36.5799526  29.3075398  14.7620686
  41.7679526  30.9605398  27.1020686  42.3669526  31.7065398  27.1330686
  42.3009526  30.2145398  27.3780686  42.8879526  29.8675398  17.2820686
  43.5439526  30.2505398  17.8640686  42.0719526  29.9055398  17.7810686
  39.3999526  27.2575398  16.0410686  38.7529526  27.0965398  16.7290686
  40.2449526  27.1225398  16.4700686  43.5859526  27.3745398  12.8970686
  42.9939526  27.9895398  12.4640686  43.0869526  26.5595398  12.9520686
  42.9419526  35.8585398  40.4560686  42.3459526  36.0215398  39.7240686
  42.4519526  35.2795398  41.0400686  44.3549526  31.5595398  13.9090686
  44.6629526  32.3225398  13.4210686  44.7359526  31.6625398  14.7810686
  41.3629526  28.6175398  23.0860686  40.9339526  29.4265398  23.3630686
  42.1239526  28.5405398  23.6620686  41.2689526  26.2515398  19.4460686
  41.3209526  26.6325398  18.5700686  40.6819526  25.5025398  19.3480686
  43.7949526  33.3375398  17.5410686  44.4039526  32.8545398  16.9830686
  43.1419526  33.6895398  16.9360686  44.0029526  34.5265398  23.5340686
  43.8509526  35.4625398  23.6620686  44.9509526  34.4245398  23.6180686
  44.7679526  24.1075398  28.7440686  44.4709526  24.0765398  29.6530686
  45.5449526  23.5485398  28.7250686  41.4549526  31.0325398  21.4220686
  40.9159526  31.4825398  22.0730686  42.1459526  31.6595398  21.2080686
  40.3979526  30.8195398  24.6910686  40.7349526  31.5755398  24.2100686
  40.9079526  30.8025398  25.5010686  38.0819526   8.4655398  36.2540686
  38.8669526   8.5365398  35.7110686  38.3319526   8.8595398  37.0900686
  37.8719526  25.1575398  26.4340686  37.2679526  24.7235398  27.0370686
  37.3969526  25.9325398  26.1350686  43.8289526  32.6485398  20.5020686
  43.9289526  33.5565398  20.7870686  43.9589526  32.6785398  19.5540686
  40.4209526  27.8435398  28.7180686  39.5319526  28.0365398  29.0170686
  40.9849526  28.1475398  29.4280686  40.1959526  30.4165398  18.6970686
  40.5089526  31.1735398  19.1930686  39.2419526  30.4935398  18.7180686
  44.1519526  29.9205398  19.7940686  44.3529526  30.6825398  20.3380686
  43.6389526  29.3475398  20.3640686  40.2639526   9.0535398  15.0910686
  41.2189526   9.1205398  15.0850686  39.9679526   9.8785398  15.4750686
  45.0839526  29.7925398  25.1770686  45.9819526  29.8025398  25.5080686
  45.0679526  30.4725398  24.5040686  45.3309526  28.1955398  35.7800686
  45.1379526  27.6555398  36.5470686  46.2859526  28.1945398  35.7200686
  45.0559526  31.6715398  35.1170686  45.7209526  31.1715398  34.6440686
  45.0449526  32.5255398  34.6830686  44.2899526  10.6555398  30.3140686
  44.8419526   9.8895398  30.1570686  43.5389526  10.3145398  30.8010686
  43.8589526  36.9435398  24.7500686  44.4499526  37.6765398  24.9240686
  43.0539526  37.1685398  25.2160686  38.5439526  38.1815398  26.4100686
  38.5229526  39.1325398  26.5210686  39.3749526  38.0105398  25.9670686
  43.9229526  29.0125398  28.4070686  44.5409526  28.3155398  28.1880686
  43.3649526  28.6345398  29.0870686  43.2229526  31.9765398  30.6170686
  43.4169526  31.7595398  29.7050686  44.0499526  32.3125398  30.9650686
  38.7709526  36.9205398  18.0990686  39.4399526  36.4115398  17.6430686
  37.9859526  36.3745398  18.0610686  40.4439526  33.1795398  19.5830686
  40.8459526  34.0155398  19.8180686  39.6079526  33.4195398  19.1820686
  38.5029526  35.2255398  10.9130686  39.2789526  35.5385398  10.4480686
  38.3249526  34.3665398  10.5310686  38.6019526  27.5305398  24.1230686
  37.9119526  27.9155398  23.5830686  39.0949526  26.9735398  23.5200686
  41.0349526  35.3375398  28.6630686  40.8529526  35.2905398  27.7250686
  41.5429526  36.1425398  28.7680686  40.5309526  14.6515398  12.4220686
  41.0929526  15.3185398  12.0270686  41.0659526  14.2695398  13.1180686
  44.2849526  30.9455398  38.6300686  43.6979526  30.8355398  37.8820686
  45.1639526  30.8705398  38.2570686  37.2269526  12.0295398  16.3540686
  37.0819526  11.1155398  16.1120686  37.1629526  12.0375398  17.3090686
  42.1449526   9.4705398  38.1340686  42.3269526  10.2795398  37.6570686
  42.0139526   8.8135398  37.4500686  41.8379526  34.9005398  12.5980686
  41.9209526  34.1795398  13.2220686  41.0179526  35.3315398  12.8360686
  44.0849526  24.4655398  31.2510686  43.5109526  24.2075398  31.9730686
  44.0839526  25.4225398  31.2750686  42.6079526  29.3345398  11.1510686
  41.7029526  29.3735398  10.8410686  42.9589526  30.2075398  10.9770686
  41.0099526  32.2035398  38.4210686  40.8649526  31.2675398  38.2810686
  41.6969526  32.2435398  39.0860686  42.7169526  34.0025398  32.5840686
  43.2249526  34.3975398  31.8750686  42.3569526  33.2015398  32.2040686
  45.5499526  11.0245398  35.4460686  45.1819526  10.2825398  35.9250686
  45.5589526  11.7395398  36.0820686  40.6599526  29.4435398  38.4480686
  39.7859526  29.3305398  38.0750686  41.2539526  29.1315398  37.7670686
  44.8909526  26.0775398  37.4830686  45.0409526  26.5635398  38.2940686
  45.7609526  25.7835398  37.2140686  45.1019526  34.0835398  39.6260686
  44.4369526  34.4685398  40.1970686  44.6589526  33.9665398  38.7860686
  36.9879526  34.1625398  33.4720686  36.8749526  33.3665398  33.9910686
  37.9279526  34.2025398  33.2950686  42.5759526  25.4985398  35.9760686
  42.4669526  24.5915398  36.2640686  43.4339526  25.7555398  36.3140686
  41.9589526  30.4765398  15.0100686  42.5739526  30.8075398  14.3550686
  42.4779526  30.4055398  15.8120686  38.2739526  32.3385398  12.7990686
  38.7939526  31.8425398  12.1670686  38.7119526  32.1925398  13.6370686
  38.3659526  29.3915398  32.8430686  38.6159526  28.7235398  32.2050686
  39.0519526  30.0555398  32.7770686  44.5029526  34.6725398  30.5740686
  44.5149526  35.1195398  29.7280686  45.3319526  34.9175398  30.9860686
  38.9999526  34.5135398  36.9550686  38.1199526  34.8515398  36.7930686
  38.8999526  33.9375398  37.7130686  43.9949526  38.1295398  34.9190686
  44.4949526  37.5955398  35.5360686  44.6269526  38.3705398  34.2420686
  45.9849526  30.1415398  30.3740686  45.3209526  30.0615398  29.6890686
  46.0759526  29.2555398  30.7250686  45.3429526   9.7375398  38.6600686
  44.6859526   9.8785398  39.3420686  45.2789526   8.8035398  38.4560686
  44.3689526  34.8815398  36.8120686  43.4439526  34.7555398  36.5990686
  44.8099526  34.8965398  35.9630686  44.2299526  36.0175398  28.2010686
  43.9189526  35.7465398  27.3370686  43.6309526  36.7165398  28.4630686
  45.1229526  37.6385398  21.0540686  45.7019526  37.3165398  21.7440686
  44.6009526  38.3195398  21.4780686  45.5129526  37.0575398  38.3140686
  45.1869526  36.4735398  37.6290686  45.1109526  36.7305398  39.1190686
  42.5919526   8.6465398  31.4140686  42.2419526   9.2735398  32.0470686
  42.4539526   7.7915398  31.8230686  37.1509526  15.1985398  28.1000686
  37.8689526  15.8025398  28.2890686  36.8079526  15.4915398  27.2560686
  37.5529526  31.3615398  23.7750686  37.3029526  30.4535398  23.6050686
  38.4499526  31.3065398  24.1040686  42.7059526  12.3865398  28.4790686
  43.2199526  11.8855398  29.1110686  42.1999526  11.7265398  28.0040686
  42.5209526  17.3955398  23.8630686  41.6349526  17.3145398  24.2150686
  42.4969526  18.1935398  23.3340686  38.3329526  33.8525398  21.6060686
  38.9739526  33.2695398  21.1990686  37.5309526  33.3325398  21.6540686
  37.6489526  11.9075398  12.6230686  37.9939526  12.4125398  11.8870686
  36.7099526  11.8405398  12.4490686  41.8829526  34.2835398  15.7650686
  41.4429526  35.1075398  15.9770686  41.1699526  33.6655398  15.6050686
  37.1209526  14.8055398  17.8060686  36.5429526  14.3645398  17.1820686
  37.7989526  15.2075398  17.2620686  42.5009526  10.1095398  24.6180686
  43.4429526  10.0165398  24.4710686  42.2099526  10.7155398  23.9370686
  45.6399526  12.8695398  29.9450686  46.2469526  12.5665398  30.6210686
  44.9049526  12.2575398  29.9920686  41.2749526  27.7315398  26.0790686
  40.3649526  27.9295398  25.8580686  41.3269526  27.8635398  27.0250686
  39.7859526  12.5605398  32.3880686  39.3959526  12.0575398  31.6730686
  40.0899526  13.3685398  31.9730686  39.7269526  17.3975398  19.1510686
  40.1499526  17.5995398  19.9860686  38.8609526  17.7985398  19.2180686
  39.0569526  16.7225398  28.9440686  39.9079526  17.1265398  29.1120686
  38.4989526  17.0325398  29.6570686  43.1559526  11.9755398  13.8520686
  42.8029526  12.8395398  14.0660686  42.4659526  11.5565398  13.3370686
  42.9769526  18.7515398  15.8810686  42.7259526  19.3075398  16.6190686
  42.9629526  19.3365398  15.1240686  41.1889526  25.7045398  31.4210686
  40.6479526  26.1005398  30.7380686  41.8749526  26.3515398  31.5890686
  38.3449526  15.2815398  24.6800686  37.4569526  15.2085398  25.0270686
  38.6379526  16.1515398  24.9500686  38.2939526  26.8025398  18.6760686
  38.8769526  26.9305398  19.4250686  37.5039526  26.4125398  19.0500686
  42.2589526  22.9895398  26.8950686  42.9309526  22.9075398  27.5710686
  41.5099526  23.3785398  27.3460686  41.4959526  19.3405398  11.5650686
  40.7899526  19.9135398  11.8640686  42.2139526  19.5045398  12.1770686
  45.6039526  27.3955398  15.2110686  45.5349526  26.4655398  15.4270686
  44.9639526  27.5275398  14.5120686  38.0689526  20.2545398  16.9830686
  37.8959526  20.0395398  16.0660686  37.9279526  19.4325398  17.4530686
  39.6929526  24.8555398  38.1220686  39.4589526  24.5125398  37.2600686
  40.6249526  24.6555398  38.2150686  38.0659526  22.3935398  37.3130686
  38.3679526  22.4805398  38.2170686  38.8339526  22.0855398  36.8320686
  37.7729526  12.9515398  37.0970686  37.9119526  12.8055398  36.1620686
  37.9669526  13.8795398  37.2270686  40.0069526  18.7265398  33.4370686
  39.4159526  19.2945398  32.9420686  40.5899526  19.3305398  33.8970686
  39.7389526  15.5425398  33.8470686  40.0059526  16.3545398  33.4150686
  39.1939526  15.0945398  33.1990686  40.3249526  27.1685398  35.3080686
  39.6999526  26.4445398  35.3320686  41.1729526  26.7615398  35.4850686
  42.2729526  23.7155398  39.2480686  42.3399526  23.1165398  38.5050686
  43.1809526  23.8875398  39.4990686  38.8039526  13.2185398  14.7440686
  38.4829526  12.8015398  13.9440686  38.1759526  12.9595398  15.4180686
  43.2519526  30.0015398  35.8960686  43.7129526  30.7795398  35.5830686
  43.8909526  29.2935398  35.8100686  39.6069526  12.2615398  39.5110686
  39.4299526  13.2005398  39.5540686  39.0949526  11.9535398  38.7630686
  39.3439526  24.4325398  35.2290686  38.5829526  23.9395398  34.9240686
  40.0969526  23.9225398  34.9300686  37.2109526  15.6445398  35.5530686
  38.0909526  15.7785398  35.1990686  36.7679526  16.4825398  35.4180686
  42.3679526  20.0265398  18.0650686  41.9349526  19.3935398  18.6390686
  42.6649526  20.7195398  18.6540686  43.1419526  14.5095398  23.5070686
  43.8519526  14.3965398  22.8750686  43.0699526  15.4565398  23.6210686
  37.5989526  18.2365398  24.4150686  36.9169526  18.2515398  25.0870686
  37.3149526  17.5595398  23.8000686  40.2269526  24.3795398  27.9590686
  40.3779526  25.2065398  28.4160686  39.4139526  24.5185398  27.4730686
  36.9639526  17.6985398  37.9670686  37.5299526  17.9675398  37.2430686
  37.5429526  17.2195398  38.5600686  41.0039526  22.7865398  30.6130686
  40.4139526  23.5165398  30.7980686  40.9599526  22.6775398  29.6630686
  42.5509526  22.7875398  36.6540686  41.9409526  22.1525398  36.2770686
  43.3579526  22.2925398  36.7910686  43.2659526  12.1165398  34.3780686
  44.1219526  11.9045398  34.7510686  42.7169526  12.3155398  35.1360686
  37.7409526  22.5945398  34.0420686  36.8019526  22.4185398  34.0980686
  38.0709526  21.9415398  33.4250686  39.1439526  20.9755398  32.1890686
  39.8679526  21.5195398  31.8800686  38.4089526  21.2095398  31.6230686
  41.7289526  16.6765398  10.8780686  41.6399526  17.6125398  11.0570686
  42.6699526  16.5105398  10.9330686  40.6689526  13.7645398  25.2400686
  41.3769526  14.2175398  24.7810686  39.9369526  14.3815398  25.2210686
  39.5239526  37.9185398  31.8390686  38.8569526  37.2335398  31.8210686
  39.2339526  38.5535398  31.1840686  38.7999526  13.0295398  27.8790686
  38.3579526  12.5835398  27.1560686  38.1709526  13.6875398  28.1750686
  40.8759526  11.6095398  16.0580686  41.8299526  11.6865398  16.0910686
  40.5929526  12.3545398  15.5280686  38.1229526  34.0745398  24.4880686
  37.2989526  33.7105398  24.8100686  38.3209526  33.5625398  23.7040686
  39.0239526  38.1585398  29.1590686  39.3369526  37.2545398  29.1720686
  38.6009526  38.2535398  28.3050686  38.2459526  26.9315398  30.5570686
  37.3609526  27.2515398  30.3830686  38.1249526  26.0165398  30.8120686
  39.1699526  36.8045398  14.0250686  38.7379526  37.2455398  13.2940686
  39.5569526  37.5145398  14.5380686  39.8259526  31.7125398  32.2210686
  39.9789526  32.0815398  31.3520686  39.6369526  32.4705398  32.7740686
  40.1429526  35.2385398  26.0890686  39.5019526  34.7645398  25.5600686
  40.2059526  36.0995398  25.6760686  38.2979526  32.8495398  39.4930686
  37.8419526  32.0595398  39.7820686  39.2089526  32.5755398  39.3850686
  37.9729526  24.3635398  31.5130686  38.1099526  24.1175398  32.4280686
  37.1329526  23.9665398  31.2810686  44.2239526  32.1005398  28.0340686
  44.0499526  32.9125398  27.5600686  44.5729526  31.5045398  27.3710686
  41.9029526  29.0755398  30.8510686  41.9889526  30.0035398  31.0690686
  41.9769526  28.6235398  31.6910686  39.9699526  35.9335398  22.7840686
  39.1139526  35.5085398  22.7320686  40.3579526  35.8005398  21.9200686
  37.2609526  34.3425398  14.1590686  37.6929526  33.8005398  13.4980686
  37.9339526  34.9635398  14.4370686  37.7129526  33.5555398  30.3430686
  38.6409526  33.3385398  30.4300686  37.6809526  34.1865398  29.6250686
  38.0109526  38.4295398  20.4650686  38.5089526  37.8685398  19.8690686
  37.1679526  38.5535398  20.0290686  37.2189526   8.7495398  16.6610686
  37.2239526   8.6775398  15.7060686  37.7639526   8.0215398  16.9590686
  44.9359526  13.1245398  39.3480686  45.3109526  13.2095398  40.2240686
  44.4529526  12.2985398  39.3720686  37.6409526  31.5035398  18.9030686
  37.2759526  31.9085398  18.1170686  36.9469526  31.5815398  19.5580686
  38.5739526  28.9835398  36.6380686  39.0809526  28.3545398  36.1240686
  37.9679526  29.3745398  36.0080686  39.9329526  34.1825398  33.6660686
  40.8589526  33.9675398  33.5510686  39.9379526  35.0385398  34.0950686
  40.8859526  11.1105398  12.0530686  40.2489526  11.5685398  11.5040686
  40.3589526  10.5245398  12.5950686  40.2629526  38.1685398  34.3820686
  39.9849526  37.9705398  33.4880686  40.6989526  39.0185398  34.3160686
  42.1289526  28.7305398  33.8350686  42.5229526  29.2765398  34.5150686
  41.3229526  28.3985398  34.2310686  39.1539526  10.9125398  30.1570686
  39.1259526  11.5715398  29.4630686  38.4819526  10.2765398  29.9120686
  37.9589526  14.6875398  11.4220686  38.2879526  15.1415398  10.6460686
  38.7029526  14.6685398  12.0230686  41.6529526  34.3325398  36.4910686
  40.7179526  34.4985398  36.6080686  41.7909526  33.4615398  36.8650686
  44.0539526  35.7445398  44.6500686  43.3489526  35.1875398  44.9800686
  44.0789526  36.4835398  45.2580686  42.9689526  15.4395398  49.2180686
  42.5039526  14.6425398  48.9650686  42.9929526  15.9665398  48.4190686
  37.7259526  22.5435398  49.0530686  36.9029526  22.8635398  48.6810686
  37.9989526  21.8425398  48.4620686  39.4789526  29.2405398  44.3630686
  40.2719526  29.7765398  44.3640686  39.7629526  28.3905398  44.6990686
  38.6789526  16.3385398  45.6550686  39.0029526  15.5505398  45.2200686
  39.4649526  16.7645398  45.9980686  45.4439526  14.8545398  44.0190686
  46.1079526  15.3765398  43.5690686  45.0779526  15.4475398  44.6760686
  44.8839526  22.2405398  47.6090686  44.2489526  21.9795398  48.2760686
  45.4549526  21.4785398  47.5100686  42.0069526  22.5505398  46.5710686
  42.3329526  21.7515398  46.9860686  41.4859526  22.9785398  47.2500686
  40.0899526  32.1915398  45.5100686  39.6499526  31.6015398  46.1220686
  40.8809526  31.7205398  45.2480686  44.4669526  37.2825398  42.1970686
  43.7709526  36.7575398  41.8020686  44.3769526  37.1305398  43.1380686
  43.0969526   9.3505398  44.9800686  43.9459526   8.9415398  44.8110686
  43.2509526  10.2855398  44.8480686  45.7529526  31.5555398  46.2440686
  46.2539526  31.1735398  46.9650686  46.3949526  31.6805398  45.5450686
  41.5799526  12.7855398  49.1280686  40.9089526  12.1475398  49.3680686
  41.8419526  12.5375398  48.2420686  43.2879526  37.2565398  47.9090686
  42.7129526  37.7925398  48.4540686  44.0289526  37.8275398  47.7060686
  45.5919526  12.6085398  49.1290686  45.9529526  12.9245398  48.3010686
  46.0709526  11.7985398  49.3060686  41.2619526  16.5105398  47.0750686
  40.6899526  16.8015398  47.7850686  41.4129526  17.2965398  46.5500686
  44.7359526  24.0595398  41.0780686  45.2279526  23.3765398  41.5330686
  45.2399526  24.8595398  41.2280686  40.9459526  36.7375398  46.6270686
  40.6229526  37.5925398  46.3420686  41.8299526  36.9095398  46.9490686
  42.8929526  24.5485398  44.8290686  43.6849526  24.1125398  44.5150686
  42.7079526  24.1315398  45.6710686  45.9779526  28.8865398  42.1160686
  45.3729526  28.2485398  42.4940686  45.8619526  29.6725398  42.6500686
  40.2879526  23.7575398  48.5120686  39.6899526  23.8845398  47.7760686
  39.8159526  23.1775398  49.1080686  42.3789526  25.0675398  41.7610686
  43.2879526  24.8715398  41.9900686  42.1849526  24.4815398  41.0300686
  43.1719526  20.2265398  43.6430686  42.3519526  20.7195398  43.6060686
  43.8099526  20.8485398  43.9920686  43.4719526  12.3485398  46.7950686
  43.9139526  12.6315398  47.5950686  43.8669526  12.8785398  46.1020686
  45.0919526  22.2715398  44.8040686  45.7739526  22.8855398  44.5330686
  45.0159526  22.3985398  45.7500686  44.9139526  18.1755398  42.4190686
  45.7889526  17.8655398  42.6510686  44.4599526  18.2645398  43.2570686
  42.4659526  14.3215398  45.0570686  43.0279526  15.0635398  44.8340686
  42.2169526  14.4745398  45.9690686  42.7639526  32.0905398  40.5990686
  43.1849526  32.3395398  41.4220686  43.4739526  31.7355398  40.0650686
  40.1179526  26.7385398  41.9500686  40.2469526  27.6865398  41.9790686
  40.9629526  26.3895398  41.6690686  40.6449526  21.2525398  43.7920686
  39.8119526  20.8845398  44.0890686  40.5519526  22.1955398  43.9280686
  44.8919526  25.0145398  47.5810686  44.7049526  24.0845398  47.7060686
  44.9229526  25.3755398  48.4670686  44.3009526  16.4765398  45.9030686
  43.7319526  17.2285398  46.0680686  45.0589526  16.6195398  46.4690686
  41.9849526  27.3235398  47.0080686  42.3819526  28.1685398  47.2210686
  42.4989526  26.9965398  46.2700686  37.9679526  37.6035398  41.7340686
  38.2679526  38.1155398  40.9830686  38.1279526  36.6935398  41.4840686
  37.1279526  29.9485398  45.2160686  38.0209526  29.6255398  45.1000686
  36.5799526  29.3075398  44.7620686  42.8879526  29.8675398  47.2820686
  43.5439526  30.2505398  47.8640686  42.0719526  29.9055398  47.7810686
  39.3999526  27.2575398  46.0410686  38.7529526  27.0965398  46.7290686
  40.2449526  27.1225398  46.4700686  43.5859526  27.3745398  42.8970686
  42.9939526  27.9895398  42.4640686  43.0869526  26.5595398  42.9520686
  44.3549526  31.5595398  43.9090686  44.6629526  32.3225398  43.4210686
  44.7359526  31.6625398  44.7810686  40.3369526  23.9545398  43.7270686
  40.7259526  24.6125398  43.1510686  40.8899526  23.9625398  44.5080686
  43.7949526  33.3375398  47.5410686  44.4039526  32.8545398  46.9830686
  43.1419526  33.6895398  46.9360686  37.8709526  26.2485398  43.5870686
  38.4649526  26.3035398  44.3360686  38.3959526  26.5395398  42.8420686
  37.7049526  23.2135398  42.9500686  37.0759526  23.9245398  43.0690686
  38.5559526  23.6135398  43.1270686  40.2639526   9.0535398  45.0910686
  41.2189526   9.1205398  45.0850686  39.9679526   9.8785398  45.4750686
  38.7709526  36.9205398  48.0990686  39.4399526  36.4115398  47.6430686
  37.9859526  36.3745398  48.0610686  38.5029526  35.2255398  40.9130686
  39.2789526  35.5385398  40.4480686  38.3249526  34.3665398  40.5310686
  40.5309526  14.6515398  42.4220686  41.0929526  15.3185398  42.0270686
  41.0659526  14.2695398  43.1180686  37.2269526  12.0295398  46.3540686
  37.0819526  11.1155398  46.1120686  37.1629526  12.0375398  47.3090686
  41.8379526  34.9005398  42.5980686  41.9209526  34.1795398  43.2220686
  41.0179526  35.3315398  42.8360686  42.6079526  29.3345398  41.1510686
  41.7029526  29.3735398  40.8410686  42.9589526  30.2075398  40.9770686
  41.9589526  30.4765398  45.0100686  42.5739526  30.8075398  44.3550686
  42.4779526  30.4055398  45.8120686  38.2739526  32.3385398  42.7990686
  38.7939526  31.8425398  42.1670686  38.7119526  32.1925398  43.6370686
  37.6489526  11.9075398  42.6230686  37.9939526  12.4125398  41.8870686
  36.7099526  11.8405398  42.4490686  38.7859526  23.0335398  46.1710686
  38.1639526  22.9835398  45.4440686  38.8519526  22.1345398  46.4920686
  41.8829526  34.2835398  45.7650686  41.4429526  35.1075398  45.9770686
  41.1699526  33.6655398  45.6050686  37.1209526  14.8055398  47.8060686
  36.5429526  14.3645398  47.1820686  37.7989526  15.2075398  47.2620686
  39.7269526  17.3975398  49.1510686  40.1499526  17.5995398  49.9860686
  38.8609526  17.7985398  49.2180686  43.1559526  11.9755398  43.8520686
  42.8029526  12.8395398  44.0660686  42.4659526  11.5565398  43.3370686
  42.9769526  18.7515398  45.8810686  42.7259526  19.3075398  46.6190686
  42.9629526  19.3365398  45.1240686  38.2939526  26.8025398  48.6760686
  38.8769526  26.9305398  49.4250686  37.5039526  26.4125398  49.0500686
  41.4959526  19.3405398  41.5650686  40.7899526  19.9135398  41.8640686
  42.2139526  19.5045398  42.1770686  45.6039526  27.3955398  45.2110686
  45.5349526  26.4655398  45.4270686  44.9639526  27.5275398  44.5120686
  38.0049526  20.6685398  44.0300686  37.8569526  21.3305398  43.3550686
  37.3349526  20.0045398  43.8660686  38.0689526  20.2545398  46.9830686
  37.8959526  20.0395398  46.0660686  37.9279526  19.4325398  47.4530686
  38.8039526  13.2185398  44.7440686  38.4829526  12.8015398  43.9440686
  38.1759526  12.9595398  45.4180686  42.3679526  20.0265398  48.0650686
  41.9349526  19.3935398  48.6390686  42.6649526  20.7195398  48.6540686
  41.7289526  16.6765398  40.8780686  41.6399526  17.6125398  41.0570686
  42.6699526  16.5105398  40.9330686  40.8759526  11.6095398  46.0580686
  41.8299526  11.6865398  46.0910686  40.5929526  12.3545398  45.5280686
  39.1699526  36.8045398  44.0250686  38.7379526  37.2455398  43.2940686
  39.5569526  37.5145398  44.5380686  37.2609526  34.3425398  44.1590686
  37.6929526  33.8005398  43.4980686  37.9339526  34.9635398  44.4370686
  37.2189526   8.7495398  46.6610686  37.2239526   8.6775398  45.7060686
  37.7639526   8.0215398  46.9590686  37.6409526  31.5035398  48.9030686
  37.2759526  31.9085398  48.1170686  36.9469526  31.5815398  49.5580686
  40.8859526  11.1105398  42.0530686  40.2489526  11.5685398  41.5040686
  40.3589526  10.5245398  42.5950686  39.7939526  29.6315398  41.0520686
  38.9529526  30.0895398  41.0610686  39.9799526  29.4915398  40.1230686
  37.9589526  14.6875398  41.4220686  38.2879526  15.1415398  40.6460686
  38.7029526  14.6685398  42.0230686  42.9689526  45.4395398 -10.7819314
  42.5039526  44.6425398 -11.0349314  42.9929526  45.9665398 -11.5809314
  39.6229526  45.6335398   9.3640686  40.3639526  46.0455398   9.8100686
  39.9529526  45.4305398   8.4890686  38.6789526  46.3385398 -14.3449314
  39.0029526  45.5505398 -14.7799314  39.4649526  46.7645398 -14.0019314
  41.4679526  40.1655398  -2.8449314  40.5369526  40.3025398  -3.0189314
  41.8579526  40.0415398  -3.7099314  45.4439526  44.8545398 -15.9809314
  46.1079526  45.3765398 -16.4309314  45.0779526  45.4475398 -15.3239314
  44.2979526  46.6735398  10.3690686  44.4499526  47.2125398  11.1450686
  45.1549526  46.6115398   9.9480686  41.7769526  42.0815398  -7.1359314
  40.9239526  42.4205398  -7.4099314  42.3209526  42.8615398  -7.0289314
  43.0969526  39.3505398 -15.0199314  43.9459526  38.9415398 -15.1889314
  43.2509526  40.2855398 -15.1519314  40.8829526  44.3995398  -0.9369314
  41.6259526  43.8645398  -1.2149314  40.1319526  44.0245398  -1.3979314
  44.3549526  43.9575398  -8.7129314  43.7399526  44.5355398  -9.1649314
  44.7309526  43.4165398  -9.4069314  41.5799526  42.7855398 -10.8719314
  40.9089526  42.1475398 -10.6319314  41.8419526  42.5375398 -11.7579314
  38.6659526  40.3075398  -7.1039314  38.7599526  39.8685398  -7.9489314
  38.8709526  41.2245398  -7.2849314  41.5599526  45.4615398   1.6120686
  41.4659526  45.1875398   0.6990686  41.5499526  46.4175398   1.5780686
  45.5919526  42.6085398 -10.8709314  45.9529526  42.9245398 -11.6989314
  46.0709526  41.7985398 -10.6939314  41.2619526  46.5105398 -12.9249314
  40.6899526  46.8015398 -12.2149314  41.4129526  47.2965398 -13.4499314
  39.5599526  40.7395398  -9.9969314  39.0109526  41.4775398 -10.2639314
  38.9719526  39.9845398 -10.0159314  45.1099526  39.5215398  -5.4199314
  45.2769526  40.2745398  -5.9869314  45.6749526  39.6645398  -4.6589314
  41.5219526  38.4405398 -10.3309314  42.0439526  38.7995398  -9.6139314
  40.7979526  39.0585398 -10.4339314  39.2839526  40.9035398  -4.4629314
  39.0759526  40.4855398  -5.2989314  39.8489526  41.6405398  -4.6979314
  43.0509526  39.7665398  -8.6439314  43.7989526  40.3615398  -8.5999314
  42.2919526  40.3205398  -8.4599314  43.4719526  42.3485398 -13.2049314
  43.9139526  42.6315398 -12.4049314  43.8669526  42.8785398 -13.8979314
  42.4659526  44.3215398 -14.9429314  43.0279526  45.0635398 -15.1659314
  42.2169526  44.4745398 -14.0309314  42.7539526  46.6455398  -1.2309314
  43.3529526  46.3495398  -0.5449314  42.2789526  45.8565398  -1.4909314
  43.0009526  44.7345398   3.6930686  42.9539526  43.7785398   3.6780686
  42.3479526  45.0175398   3.0540686  42.7859526  45.0315398   8.4820686
  43.3629526  45.2545398   7.7520686  43.3199526  45.1775398   9.2630686
  44.2449526  45.6105398   6.0580686  43.7639526  45.4965398   5.2390686
  44.3639526  46.5565398   6.1370686  41.4639526  40.5055398   3.1090686
  42.1349526  41.0575398   3.5120686  40.8439526  41.1245398   2.7250686
  38.8649526  39.0965398   9.4530686  39.6649526  39.5425398   9.7310686
  38.1979526  39.7835398   9.4450686  44.5009526  46.7175398   3.0560686
  44.0939526  45.8595398   3.1740686  43.9879526  47.1335398   2.3630686
  43.0489526  40.9565398  10.1690686  42.4929526  40.8845398  10.9440686
  42.5649526  40.4985398   9.4820686  44.3009526  46.4765398 -14.0969314
  43.7319526  47.2285398 -13.9319314  45.0589526  46.6195398 -13.5309314
  43.9989526  43.0405398  -4.0119314  43.5169526  43.5925398  -4.6269314
  43.3719526  42.8555398  -3.3129314  42.2049526  42.4765398   7.3900686
  41.2769526  42.6115398   7.1990686  42.4389526  43.2005398   7.9700686
  37.2569526  47.2785398   0.8880686  36.9729526  46.4755398   1.3240686
  37.0709526  47.9735398   1.5190686  40.6469526  45.6615398   6.5610686
  41.4469526  45.1425398   6.6450686  40.5009526  45.7255398   5.6170686
  37.9649526  41.8885398   4.4770686  37.6459526  41.0115398   4.2660686
  38.7279526  42.0095398   3.9110686  45.0369526  45.5675398   0.2530686
  45.0139526  44.6115398   0.2260686  45.8769526  45.7765398   0.6630686
  38.2119526  44.5245398  -9.8419314  37.7389526  44.7915398 -10.6299314
  39.0109526  45.0515398  -9.8509314  38.0819526  38.4655398   6.2540686
  38.8669526  38.5365398   5.7110686  38.3319526  38.8595398   7.0900686
  40.2639526  39.0535398 -14.9089314  41.2189526  39.1205398 -14.9149314
  39.9679526  39.8785398 -14.5249314  44.2899526  40.6555398   0.3140686
  44.8419526  39.8895398   0.1570686  43.5389526  40.3145398   0.8010686
  40.5309526  44.6515398 -17.5779314  41.0929526  45.3185398 -17.9729314
  41.0659526  44.2695398 -16.8819314  37.2269526  42.0295398 -13.6459314
  37.0819526  41.1155398 -13.8879314  37.1629526  42.0375398 -12.6909314
  42.1449526  39.4705398   8.1340686  42.3269526  40.2795398   7.6570686
  42.0139526  38.8135398   7.4500686  45.5499526  41.0245398   5.4460686
  45.1819526  40.2825398   5.9250686  45.5589526  41.7395398   6.0820686
  45.3429526  39.7375398   8.6600686  44.6859526  39.8785398   9.3420686
  45.2789526  38.8035398   8.4560686  42.5919526  38.6465398   1.4140686
  42.2419526  39.2735398   2.0470686  42.4539526  37.7915398   1.8230686
  37.1509526  45.1985398  -1.8999314  37.8689526  45.8025398  -1.7109314
  36.8079526  45.4915398  -2.7439314  42.7059526  42.3865398  -1.5209314
  43.2199526  41.8855398  -0.8889314  42.1999526  41.7265398  -1.9959314
  37.6489526  41.9075398 -17.3769314  37.9939526  42.4125398 -18.1129314
  36.7099526  41.8405398 -17.5509314  37.1209526  44.8055398 -12.1939314
  36.5429526  44.3645398 -12.8179314  37.7989526  45.2075398 -12.7379314
  42.5009526  40.1095398  -5.3819314  43.4429526  40.0165398  -5.5289314
  42.2099526  40.7155398  -6.0629314  45.6399526  42.8695398  -0.0549314
  46.2469526  42.5665398   0.6210686  44.9049526  42.2575398  -0.0079314
  39.7859526  42.5605398   2.3880686  39.3959526  42.0575398   1.6730686
  40.0899526  43.3685398   1.9730686  39.0569526  46.7225398  -1.0559314
  39.9079526  47.1265398  -0.8879314  38.4989526  47.0325398  -0.3429314
  43.1559526  41.9755398 -16.1479314  42.8029526  42.8395398 -15.9339314
  42.4659526  41.5565398 -16.6629314  38.3449526  45.2815398  -5.3199314
  37.4569526  45.2085398  -4.9729314  38.6379526  46.1515398  -5.0499314
  37.7729526  42.9515398   7.0970686  37.9119526  42.8055398   6.1620686
  37.9669526  43.8795398   7.2270686  39.7389526  45.5425398   3.8470686
  40.0059526  46.3545398   3.4150686  39.1939526  45.0945398   3.1990686
  38.8039526  43.2185398 -15.2559314  38.4829526  42.8015398 -16.0559314
  38.1759526  42.9595398 -14.5819314  39.6069526  42.2615398   9.5110686
  39.4299526  43.2005398   9.5540686  39.0949526  41.9535398   8.7630686
  37.2109526  45.6445398   5.5530686  38.0909526  45.7785398   5.1990686
  36.7679526  46.4825398   5.4180686  43.1419526  44.5095398  -6.4929314
  43.8519526  44.3965398  -7.1249314  43.0699526  45.4565398  -6.3789314
  43.2659526  42.1165398   4.3780686  44.1219526  41.9045398   4.7510686
  42.7169526  42.3155398   5.1360686  41.7289526  46.6765398 -19.1219314
  41.6399526  47.6125398 -18.9429314  42.6699526  46.5105398 -19.0669314
  40.6689526  43.7645398  -4.7599314  41.3769526  44.2175398  -5.2189314
  39.9369526  44.3815398  -4.7789314  38.7999526  43.0295398  -2.1209314
  38.3579526  42.5835398  -2.8439314  38.1709526  43.6875398  -1.8249314
  40.8759526  41.6095398 -13.9419314  41.8299526  41.6865398 -13.9089314
  40.5929526  42.3545398 -14.4719314  37.2189526  38.7495398 -13.3389314
  37.2239526  38.6775398 -14.2939314  37.7639526  38.0215398 -13.0409314
  44.9359526  43.1245398   9.3480686  45.3109526  43.2095398  10.2240686
  44.4529526  42.2985398   9.3720686  40.8859526  41.1105398 -17.9469314
  40.2489526  41.5685398 -18.4959314  40.3589526  40.5245398 -17.4049314
  39.1539526  40.9125398   0.1570686  39.1259526  41.5715398  -0.5369314
  38.4819526  40.2765398  -0.0879314  37.9589526  44.6875398 -18.5779314
  38.2879526  45.1415398 -19.3539314  38.7029526  44.6685398 -17.9769314
  42.9689526  45.4395398  19.2180686  42.5039526  44.6425398  18.9650686
  42.9929526  45.9665398  18.4190686  39.6229526  45.6335398  39.3640686
  40.3639526  46.0455398  39.8100686  39.9529526  45.4305398  38.4890686
  38.6789526  46.3385398  15.6550686  39.0029526  45.5505398  15.2200686
  39.4649526  46.7645398  15.9980686  41.4679526  40.1655398  27.1550686
  40.5369526  40.3025398  26.9810686  41.8579526  40.0415398  26.2900686
  45.4439526  44.8545398  14.0190686  46.1079526  45.3765398  13.5690686
  45.0779526  45.4475398  14.6760686  44.2979526  46.6735398  40.3690686
  44.4499526  47.2125398  41.1450686  45.1549526  46.6115398  39.9480686
  41.7769526  42.0815398  22.8640686  40.9239526  42.4205398  22.5900686
  42.3209526  42.8615398  22.9710686  43.0969526  39.3505398  14.9800686
  43.9459526  38.9415398  14.8110686  43.2509526  40.2855398  14.8480686
  40.8829526  44.3995398  29.0630686  41.6259526  43.8645398  28.7850686
  40.1319526  44.0245398  28.6020686  44.3549526  43.9575398  21.2870686
  43.7399526  44.5355398  20.8350686  44.7309526  43.4165398  20.5930686
  41.5799526  42.7855398  19.1280686  40.9089526  42.1475398  19.3680686
  41.8419526  42.5375398  18.2420686  38.6659526  40.3075398  22.8960686
  38.7599526  39.8685398  22.0510686  38.8709526  41.2245398  22.7150686
  41.5599526  45.4615398  31.6120686  41.4659526  45.1875398  30.6990686
  41.5499526  46.4175398  31.5780686  45.5919526  42.6085398  19.1290686
  45.9529526  42.9245398  18.3010686  46.0709526  41.7985398  19.3060686
  41.2619526  46.5105398  17.0750686  40.6899526  46.8015398  17.7850686
  41.4129526  47.2965398  16.5500686  39.5599526  40.7395398  20.0030686
  39.0109526  41.4775398  19.7360686  38.9719526  39.9845398  19.9840686
  45.1099526  39.5215398  24.5800686  45.2769526  40.2745398  24.0130686
  45.6749526  39.6645398  25.3410686  41.5219526  38.4405398  19.6690686
  42.0439526  38.7995398  20.3860686  40.7979526  39.0585398  19.5660686
  39.2839526  40.9035398  25.5370686  39.0759526  40.4855398  24.7010686
  39.8489526  41.6405398  25.3020686  43.0509526  39.7665398  21.3560686
  43.7989526  40.3615398  21.4000686  42.2919526  40.3205398  21.5400686
  43.4719526  42.3485398  16.7950686  43.9139526  42.6315398  17.5950686
  43.8669526  42.8785398  16.1020686  42.4659526  44.3215398  15.0570686
  43.0279526  45.0635398  14.8340686  42.2169526  44.4745398  15.9690686
  42.7539526  46.6455398  28.7690686  43.3529526  46.3495398  29.4550686
  42.2789526  45.8565398  28.5090686  43.0009526  44.7345398  33.6930686
  42.9539526  43.7785398  33.6780686  42.3479526  45.0175398  33.0540686
  42.7859526  45.0315398  38.4820686  43.3629526  45.2545398  37.7520686
  43.3199526  45.1775398  39.2630686  44.2449526  45.6105398  36.0580686
  43.7639526  45.4965398  35.2390686  44.3639526  46.5565398  36.1370686
  41.4639526  40.5055398  33.1090686  42.1349526  41.0575398  33.5120686
  40.8439526  41.1245398  32.7250686  38.8649526  39.0965398  39.4530686
  39.6649526  39.5425398  39.7310686  38.1979526  39.7835398  39.4450686
  44.5009526  46.7175398  33.0560686  44.0939526  45.8595398  33.1740686
  43.9879526  47.1335398  32.3630686  43.0489526  40.9565398  40.1690686
  42.4929526  40.8845398  40.9440686  42.5649526  40.4985398  39.4820686
  44.3009526  46.4765398  15.9030686  43.7319526  47.2285398  16.0680686
  45.0589526  46.6195398  16.4690686  43.9989526  43.0405398  25.9880686
  43.5169526  43.5925398  25.3730686  43.3719526  42.8555398  26.6870686
  42.2049526  42.4765398  37.3900686  41.2769526  42.6115398  37.1990686
  42.4389526  43.2005398  37.9700686  37.2569526  47.2785398  30.8880686
  36.9729526  46.4755398  31.3240686  37.0709526  47.9735398  31.5190686
  40.6469526  45.6615398  36.5610686  41.4469526  45.1425398  36.6450686
  40.5009526  45.7255398  35.6170686  37.9649526  41.8885398  34.4770686
  37.6459526  41.0115398  34.2660686  38.7279526  42.0095398  33.9110686
  45.0369526  45.5675398  30.2530686  45.0139526  44.6115398  30.2260686
  45.8769526  45.7765398  30.6630686  38.2119526  44.5245398  20.1580686
  37.7389526  44.7915398  19.3700686  39.0109526  45.0515398  20.1490686
  39.2579526  43.1475398  22.6070686  38.7819526  43.4885398  21.8500686
  38.9339526  43.6615398  23.3460686  38.0819526  38.4655398  36.2540686
  38.8669526  38.5365398  35.7110686  38.3319526  38.8595398  37.0900686
  40.2639526  39.0535398  15.0910686  41.2189526  39.1205398  15.0850686
  39.9679526  39.8785398  15.4750686  44.2899526  40.6555398  30.3140686
  44.8419526  39.8895398  30.1570686  43.5389526  40.3145398  30.8010686
  40.5309526  44.6515398  12.4220686  41.0929526  45.3185398  12.0270686
  41.0659526  44.2695398  13.1180686  37.2269526  42.0295398  16.3540686
  37.0819526  41.1155398  16.1120686  37.1629526  42.0375398  17.3090686
  42.1449526  39.4705398  38.1340686  42.3269526  40.2795398  37.6570686
  42.0139526  38.8135398  37.4500686  45.5499526  41.0245398  35.4460686
  45.1819526  40.2825398  35.9250686  45.5589526  41.7395398  36.0820686
  45.3429526  39.7375398  38.6600686  44.6859526  39.8785398  39.3420686
  45.2789526  38.8035398  38.4560686  42.5919526  38.6465398  31.4140686
  42.2419526  39.2735398  32.0470686  42.4539526  37.7915398  31.8230686
  37.1509526  45.1985398  28.1000686  37.8689526  45.8025398  28.2890686
  36.8079526  45.4915398  27.2560686  42.7059526  42.3865398  28.4790686
  43.2199526  41.8855398  29.1110686  42.1999526  41.7265398  28.0040686
  37.6489526  41.9075398  12.6230686  37.9939526  42.4125398  11.8870686
  36.7099526  41.8405398  12.4490686  37.1209526  44.8055398  17.8060686
  36.5429526  44.3645398  17.1820686  37.7989526  45.2075398  17.2620686
  42.5009526  40.1095398  24.6180686  43.4429526  40.0165398  24.4710686
  42.2099526  40.7155398  23.9370686  45.6399526  42.8695398  29.9450686
  46.2469526  42.5665398  30.6210686  44.9049526  42.2575398  29.9920686
  39.7859526  42.5605398  32.3880686  39.3959526  42.0575398  31.6730686
  40.0899526  43.3685398  31.9730686  39.0569526  46.7225398  28.9440686
  39.9079526  47.1265398  29.1120686  38.4989526  47.0325398  29.6570686
  43.1559526  41.9755398  13.8520686  42.8029526  42.8395398  14.0660686
  42.4659526  41.5565398  13.3370686  38.3449526  45.2815398  24.6800686
  37.4569526  45.2085398  25.0270686  38.6379526  46.1515398  24.9500686
  37.7729526  42.9515398  37.0970686  37.9119526  42.8055398  36.1620686
  37.9669526  43.8795398  37.2270686  39.7389526  45.5425398  33.8470686
  40.0059526  46.3545398  33.4150686  39.1939526  45.0945398  33.1990686
  38.8039526  43.2185398  14.7440686  38.4829526  42.8015398  13.9440686
  38.1759526  42.9595398  15.4180686  39.6069526  42.2615398  39.5110686
  39.4299526  43.2005398  39.5540686  39.0949526  41.9535398  38.7630686
  37.2109526  45.6445398  35.5530686  38.0909526  45.7785398  35.1990686
  36.7679526  46.4825398  35.4180686  43.1419526  44.5095398  23.5070686
  43.8519526  44.3965398  22.8750686  43.0699526  45.4565398  23.6210686
  43.2659526  42.1165398  34.3780686  44.1219526  41.9045398  34.7510686
  42.7169526  42.3155398  35.1360686  41.7289526  46.6765398  10.8780686
  41.6399526  47.6125398  11.0570686  42.6699526  46.5105398  10.9330686
  40.6689526  43.7645398  25.2400686  41.3769526  44.2175398  24.7810686
  39.9369526  44.3815398  25.2210686  38.7999526  43.0295398  27.8790686
  38.3579526  42.5835398  27.1560686  38.1709526  43.6875398  28.1750686
  40.8759526  41.6095398  16.0580686  41.8299526  41.6865398  16.0910686
  40.5929526  42.3545398  15.5280686  37.2189526  38.7495398  16.6610686
  37.2239526  38.6775398  15.7060686  37.7639526  38.0215398  16.9590686
  44.9359526  43.1245398  39.3480686  45.3109526  43.2095398  40.2240686
  44.4529526  42.2985398  39.3720686  40.8859526  41.1105398  12.0530686
  40.2489526  41.5685398  11.5040686  40.3589526  40.5245398  12.5950686
  39.1539526  40.9125398  30.1570686  39.1259526  41.5715398  29.4630686
  38.4819526  40.2765398  29.9120686  37.9589526  44.6875398  11.4220686
  38.2879526  45.1415398  10.6460686  38.7029526  44.6685398  12.0230686
  42.9689526  45.4395398  49.2180686  42.5039526  44.6425398  48.9650686
  42.9929526  45.9665398  48.4190686  38.6789526  46.3385398  45.6550686
  39.0029526  45.5505398  45.2200686  39.4649526  46.7645398  45.9980686
  45.4439526  44.8545398  44.0190686  46.1079526  45.3765398  43.5690686
  45.0779526  45.4475398  44.6760686  43.0969526  39.3505398  44.9800686
  43.9459526  38.9415398  44.8110686  43.2509526  40.2855398  44.8480686
  41.5799526  42.7855398  49.1280686  40.9089526  42.1475398  49.3680686
  41.8419526  42.5375398  48.2420686  45.5919526  42.6085398  49.1290686
  45.9529526  42.9245398  48.3010686  46.0709526  41.7985398  49.3060686
  41.2619526  46.5105398  47.0750686  40.6899526  46.8015398  47.7850686
  41.4129526  47.2965398  46.5500686  43.4719526  42.3485398  46.7950686
  43.9139526  42.6315398  47.5950686  43.8669526  42.8785398  46.1020686
  42.4659526  44.3215398  45.0570686  43.0279526  45.0635398  44.8340686
  42.2169526  44.4745398  45.9690686  44.3009526  46.4765398  45.9030686
  43.7319526  47.2285398  46.0680686  45.0589526  46.6195398  46.4690686
  40.2639526  39.0535398  45.0910686  41.2189526  39.1205398  45.0850686
  39.9679526  39.8785398  45.4750686  40.5309526  44.6515398  42.4220686
  41.0929526  45.3185398  42.0270686  41.0659526  44.2695398  43.1180686
  37.2269526  42.0295398  46.3540686  37.0819526  41.1155398  46.1120686
  37.1629526  42.0375398  47.3090686  37.6489526  41.9075398  42.6230686
  37.9939526  42.4125398  41.8870686  36.7099526  41.8405398  42.4490686
  37.1209526  44.8055398  47.8060686  36.5429526  44.3645398  47.1820686
  37.7989526  45.2075398  47.2620686  43.1559526  41.9755398  43.8520686
  42.8029526  42.8395398  44.0660686  42.4659526  41.5565398  43.3370686
  38.8039526  43.2185398  44.7440686  38.4829526  42.8015398  43.9440686
  38.1759526  42.9595398  45.4180686  41.7289526  46.6765398  40.8780686
  41.6399526  47.6125398  41.0570686  42.6699526  46.5105398  40.9330686
  40.8759526  41.6095398  46.0580686  41.8299526  41.6865398  46.0910686
  40.5929526  42.3545398  45.5280686  37.2189526  38.7495398  46.6610686
  37.2239526  38.6775398  45.7060686  37.7639526  38.0215398  46.9590686
  40.8859526  41.1105398  42.0530686  40.2489526  41.5685398  41.5040686
  40.3589526  40.5245398  42.5950686  37.9589526  44.6875398  41.4220686
  38.2879526  45.1415398  40.6460686  38.7029526  44.6685398  42.0230686
  -6.7580474  25.3055398  47.4300686   9.1539526 -19.0874602   0.1570686
  31.6789526  -8.7254602  28.5760686  41.8379526   4.9005398  12.5980686
 -19.6630474  -6.0454602  43.7270686  12.3789526  25.0675398  41.7610686
 -15.1080474  25.0145398  47.5810686 -14.4040474   8.0205398 -14.7629314
   5.2089526  -8.4534602  34.5010686  17.6229526 -16.6924602  21.6020686
  -3.3580474  -8.0744602   9.8370686 -11.9420474  -3.1334602  -3.5169314
   9.3999526  27.2575398 -13.9589314 -17.1120474  29.8675398  47.2820686
  40.8829526 -15.6004602  29.0630686  42.9769526 -11.2484602  15.8810686
   1.8779526 -19.4144602  46.4160686  39.2579526  43.1475398  -7.3929314
   6.4949526  18.2475398  41.7330686   9.6929526  -5.1444602  38.1220686
  34.5689526  12.4645398  -8.8299314  -8.1120474 -10.2704602   1.0120686
 -18.7380474  16.5105398  47.0750686  26.8789526   5.7835398   3.8100686
  17.0089526 -17.9754602   2.3410686  19.7209526  -8.3834602  24.8510686
  35.1209526   4.2405398  40.7180686 -11.2120474  28.5495398  40.2900686
  18.2979526  -8.2984602  20.1480686  16.5019526  17.1915398  47.0810686
 -10.6330474 -12.4534602   7.4770686  39.7939526  29.6315398  11.0520686
  30.4619526  37.8245398  27.4880686 -13.6100474  43.2195398  -2.8039314
 -12.2290474  19.7555398 -19.0079314 -10.1790474  -9.3154602  29.4750686
 -17.1680474  -9.9794602  -7.1969314  31.8779526 -19.4144602  16.4160686
  30.6829526  28.9165398  46.6200686  19.2809526 -18.5024602  17.1660686
  -4.4230474  16.4985398  42.1240686   8.8039526 -16.7814602 -15.2559314
  45.5919526 -17.3914602 -10.8709314  33.1529526  44.6725398  13.3900686
  10.8759526 -18.3904602 -13.9419314 -13.4150474  24.4015398 -15.6089314
 -22.7360474  20.3035398  22.1230686  32.0349526 -10.8204602   2.9510686
 -13.8240474   9.6465398  11.6920686  20.1239526  22.8725398 -16.2419314
 -10.0540474 -19.4774602  -9.8749314  44.7359526  -5.9404602  41.0780686
   8.3329526  33.8525398  21.6060686  39.7649526  -2.7464602  21.4930686
  21.7609526  46.2665398  15.8720686  33.4119526 -14.0364602   4.4590686
  41.4469526   3.1195398  23.6500686  -9.2660474  38.9135398  12.3640686
  44.0029526  34.5265398  -6.4659314  45.0919526  -7.7284602  14.8040686
  36.9639526 -12.3014602  37.9670686  33.5909526   1.8805398  14.4070686
   1.5949526  42.2565398  48.8540686  31.6559526  36.3835398  10.1050686
  45.0919526  -7.7284602  44.8040686 -11.1500474  31.5885398  19.0600686
  30.1309526   4.1695398  48.2650686  38.2939526  -3.1974602  18.6760686
  -7.4670474   8.6315398  -6.2539314
  68.9060948  68.9060948  68.9060948  90.0000000  90.0000000  90.0000000
