
30242  0.0000000e+00
   1.7610000  29.5480000  11.8970000   1.0263624  29.6917770  11.2160842
   1.6055452  30.1970106  12.6620983   2.6674795  29.7226200  11.4876414
   1.6870000  28.1680000  12.4540000   1.6622827  27.4332086  11.6514544
   0.4410000  28.0530000  13.2820000   0.2180000  28.8100000  14.2390000
   2.8780000  27.8540000  13.3760000   2.8103461  28.4870126  14.2643936
   4.1850000  28.1650000  12.6620000   4.1782923  29.1728337  12.2516027
   4.3336054  27.4672896  11.8358904   2.8560000  26.3760000  13.8210000
   3.3816607  26.2938841  14.7756587   1.8468092  26.0056726  14.0005784
   3.3499403  25.7351878  13.0928181   5.4010000  28.1220000  13.5760000
   6.3035850  28.4336722  13.0581941   5.2478212  28.8023575  14.4138427
   5.5370812  27.1132623  13.9651854  -0.3990000  27.1490000  12.8610000
  -0.1511985  26.5117683  12.1217885  -1.5590000  26.7980000  13.6190000
  -1.7658387  27.5701293  14.3635576  -1.3860000  25.4760000  14.3880000
  -0.5890000  24.5870000  14.0280000  -2.7460000  26.8050000  12.6790000
  -2.7036459  25.9191842  12.0425582  -3.6392555  26.7305708  13.2956460
  -2.7150000  28.0490000  11.7870000  -2.4723896  27.7432602  10.7657772
  -1.9584024  28.7726800  12.0957944  -4.0060000  28.8470000  11.7910000
  -5.0250000  28.3590000  12.3440000  -4.0030000  29.9730000  11.2360000
  -2.1510000  25.3890000  15.4680000  -2.8272473  26.1185752  15.6320681
  -2.0820000  24.3170000  16.4430000  -1.0441400  24.2127588  16.7474816
  -2.6610000  22.9820000  16.0140000  -3.8150000  22.8910000  15.6190000
  -2.8690000  24.7650000  17.6790000  -3.8920469  25.0078042  17.3848875
  -2.9201176  23.9396363  18.3921737  -2.2640000  25.9740000  18.3750000
  -2.1508145  26.8021029  17.6748506  -2.9550873  26.3069579  19.1490521
  -0.9570000  25.6650000  19.0470000  -0.8690000  24.7560000  19.8930000
   0.0650000  26.4460000  18.7130000   0.0175368  27.1908437  18.0458671
   0.9380055  26.3526938  19.2288969  -1.8580000  21.9110000  16.1030000
  -2.3850000  20.5850000  15.7650000  -2.7356080  20.5954363  14.7327773
  -3.4960000  20.0610000  16.6890000  -3.4130000  20.4230000  17.8610000
  -1.1180000  19.6800000  15.8810000  -1.1296045  19.1488272  16.8341179
  -1.0728769  18.9642821  15.0600156   0.0190000  20.5710000  15.8640000
   0.3180981  20.7491771  14.8295532   0.8612316  20.1570151  16.4176848
  -0.4270000  21.8800000  16.4710000   0.1318292  22.6955296  16.0116597
  -0.3126337  21.8872663  17.5514433  -4.4690000  19.2450000  16.2300000
  -4.5057696  19.0822875  15.2355650  -5.4880000  18.6400000  17.0950000
  -6.1260217  19.4293107  17.5013861  -4.8760000  17.9740000  18.2940000
  -5.4210000  18.0220000  19.3910000  -6.3560000  17.5900000  16.3760000
  -5.6849310  16.9387901  15.8193349  -6.8686730  16.9722070  17.1169004
  -7.3690000  18.1320000  15.4790000  -6.9560481  19.0233070  15.0030933
  -8.2380040  18.4611675  16.0523346  -7.7870000  17.2270000  14.3710000
  -8.1987168  17.8575690  13.5787442  -6.9117341  16.7156959  13.9633175
  -8.8010000  16.2630000  14.7500000  -9.1167742  16.2564414  15.7057424
  -9.3430000  15.3740000  13.9030000  -9.0090000  15.3770000  12.6220000
  -9.4466458  14.7441928  11.9778206  -8.2833700  15.9941718  12.3083564
 -10.2530000  14.5110000  14.3210000 -10.7178723  13.9064995  13.6655842
 -10.4714015  14.4438718  15.2989408  -3.7380000  17.2830000  18.0630000
  -3.3014948  17.3475512  17.1594780  -3.0910000  16.5040000  19.0950000
  -3.8531798  16.0287529  19.7156376  -2.2190000  17.3080000  20.0670000
  -1.6760000  16.7430000  20.9860000  -2.2580000  15.3920000  18.4230000
  -1.6333783  14.9093241  19.1730777  -2.9520375  14.6306910  18.0641661
  -1.3990000  15.8060000  17.2670000  -1.6410000  15.5870000  15.9570000
  -2.4828313  15.0369143  15.5678723  -0.1370000  16.4820000  17.3330000
  -0.6270000  16.0840000  15.1840000  -0.5429530  15.9600686  14.1803960
   0.3200000  16.6360000  16.0120000   0.6450000  16.9730000  18.3660000
   0.3234898  16.8568249  19.3856443   1.5190000  17.2870000  15.7080000
   1.8564013  17.3916659  14.6876777   1.8240000  17.6080000  18.0810000
   2.4424372  17.9924311  18.8812466   2.2750000  17.7210000  16.7400000
   3.2293228  18.1894757  16.5392584  -1.9430000  18.5830000  19.8120000
  -2.4679747  19.0944607  19.1134652  -1.0010000  19.3460000  20.6520000
  -0.1504801  18.7115901  20.8933014  -1.6310000  19.7820000  21.9490000
  -2.7890000  20.2100000  21.9750000  -0.4460000  20.5910000  19.9160000
   0.1729146  21.1213970  20.6408999   0.1967669  20.2840112  19.1003017
  -1.2232865  21.2793802  19.5871681  -0.8900000  19.6820000  23.0430000
   0.0713155  19.3673261  22.9734024  -1.4550000  20.0600000  24.3440000
  -2.3684697  19.4919975  24.5197402  -1.7510000  21.5240000  24.4120000
  -0.9720000  22.3570000  23.9710000  -0.4470000  19.7100000  25.4080000
  -0.2996151  18.6290548  25.4302131   0.5027028  20.1912231  25.1783987
  -0.9200000  20.1600000  26.6780000  -0.2600056  19.9484477  27.3496424
  -2.9080000  21.8610000  24.9880000  -3.5164874  21.1211373  25.2993246
  -3.2710000  23.2460000  25.2380000  -2.7071734  23.9120938  24.5801861
  -2.9220000  23.6560000  26.6640000  -3.2380000  24.8070000  27.0380000
  -4.7670000  23.4850000  25.0340000  -5.3168722  22.7923515  25.6746728
  -5.0148991  24.4973914  25.3546258  -5.2240000  23.3290000  23.5910000
  -4.7043316  24.0411319  22.9473599  -4.9856380  22.3195299  23.2515843
  -6.6980000  23.5200000  23.5020000  -7.1880905  22.9997532  24.3274700
  -7.0440919  23.0692637  22.5694352  -7.0690000  24.9810000  23.4920000
  -6.7719928  25.4073502  22.5278506  -6.4917233  25.4971364  24.2656956
  -8.5350000  25.1870000  23.7390000  -9.0798742  24.6711602  23.0590868
  -8.7784004  24.8626723  24.6664734  -8.7683673  26.1699006  23.6684146
  -2.3240000  22.7450000  27.4550000  -2.0169111  21.8799732  27.0330160
  -1.9430000  22.9860000  28.8540000  -2.8480630  23.1555521  29.4394338
  -1.0870000  24.1940000  28.9250000  -0.2160000  24.3900000  28.0660000
  -1.1820000  21.7890000  29.4630000  -0.1954070  21.7041136  29.0039871
  -1.7352084  20.8757565  29.2376702  -1.0340000  21.8870000  30.9800000
  -0.0330000  22.5010000  31.4700000  -1.8810000  21.3750000  31.7900000
  -1.2420000  24.9930000  29.9880000  -1.8083883  24.7122410  30.7759850
  -0.4440000  26.2050000  30.0700000  -0.6389336  26.8093028  29.1838882
   1.0670000  25.9370000  30.1100000   1.8530000  26.8010000  29.7120000
  -0.8470000  27.0180000  31.3030000  -1.9009084  27.2915376  31.2335476
  -0.2426027  27.9248906  31.3548940  -0.6320000  26.2330000  32.4530000
  -0.8200544  26.7506393  33.2397121   1.4760000  24.7550000  30.6010000
   0.7848952  24.1002338  30.9703770   2.9040000  24.3730000  30.7090000
   3.5035520  25.2806774  30.7840841   3.4550000  23.5730000  29.5080000
   4.6390000  23.2970000  29.4760000   3.1480000  23.5420000  31.9990000
   2.6170436  22.5903274  31.9372898   2.7851738  24.0972564  32.8642257
   4.2142255  23.3484662  32.1231456   2.6320000  23.1980000  28.5390000
   1.6649587  23.5052540  28.5711835   3.0600000  22.2090000  27.4690000
   2.9848700  21.2293406  27.9420167   4.4980000  22.1820000  26.7930000
   5.2310000  21.1330000  26.6600000   1.9960000  22.2430000  26.4090000
   1.9682491  23.2313582  25.9468675   2.2203831  21.5019118  25.6417903
   1.0190375  22.0431817  26.8487941   4.8840000  23.3450000  26.3370000
   4.2444888  24.1177880  26.4439240   6.1540000  23.5880000  25.6520000
   6.6907717  22.6603631  25.4645528   5.9631845  24.0709815  24.6924855
   7.0190000  24.5010000  26.4960000   7.9240000  25.1370000  25.9690000
   6.8030000  24.5250000  27.8160000   6.1236790  23.8973306  28.2350133
   7.5860000  25.3590000  28.6970000   8.0729282  26.1576395  28.1350037
   8.6060000  24.5360000  29.3800000   8.3590000  23.3790000  29.6880000
   6.6640000  25.9900000  29.7350000   7.2301873  26.6813716  30.3592125
   6.2326339  25.2184197  30.3753955   5.8624390  26.5375435  29.2376583
   9.7550000  25.1360000  29.5890000   9.8619844  26.0901407  29.2910115
  10.8870000  24.4820000  30.2040000  11.0719030  23.5313031  29.6983235
  10.6220000  24.2180000  31.6740000  10.0870000  25.0660000  32.4080000
  12.0700000  25.3730000  30.0530000  11.8538804  26.3709454  30.4366633
  12.9038577  24.9454817  30.6069714  12.3565774  25.4300925  29.0033083
  11.0360000  23.0530000  32.1370000  11.2418077  22.3155470  31.4542419
  10.9080000  22.6770000  33.5420000  10.5122520  23.5062585  34.1278448
  12.2430000  22.3080000  34.1650000  12.2860000  21.8670000  35.3290000
   9.9270000  21.5270000  33.6680000  10.3969990  20.6028532  33.3227456
   9.6159526  21.4006647  34.7076454   8.8000000  21.8070000  32.8520000
   8.9969750  22.5527505  32.2764897  13.3280000  22.4470000  33.3910000
  13.2092634  22.7376450  32.4302982  14.6760000  22.1510000  33.8530000
  14.6903573  22.2525702  34.9349988  15.6420000  23.1260000  33.2180000
  15.3280000  23.7270000  32.1890000  15.1360000  20.7320000  33.5040000
  16.0414934  20.4833370  34.0539479  15.4170000  20.6910000  32.0940000
  15.1416868  19.8314397  31.7964028  14.0720000  19.6660000  33.7920000
  13.7643405  19.7164143  34.8361731  13.2009997  19.7935617  33.1465320
  14.4942748  18.6787648  33.6026576  16.8280000  23.2240000  33.7760000
  17.8910000  24.0440000  33.2150000  17.6100423  25.0951488  33.2717806
  18.1730000  23.6840000  31.7490000  18.3120000  24.5850000  30.9270000
  19.0780000  23.7720000  34.1520000  19.7654156  24.6179399  34.1859931
  19.6098671  22.8669520  33.8501921  18.4010000  23.5410000  35.4880000
  19.0532637  23.0078373  36.1810057  18.0986757  24.4968682  35.9188690
  17.1870000  22.7320000  35.1420000  17.4476065  21.6734561  35.1126321
  16.4064328  22.9194797  35.8793203  18.3060000  22.4070000  31.4600000
  18.2381922  21.6948928  32.1682667  18.5700000  22.0200000  30.0720000
  19.4562447  22.5474644  29.7119367  17.4280000  22.3960000  29.1230000
  17.6660000  22.8020000  27.9770000  18.8320000  20.5410000  30.0020000
  18.7528248  20.2224624  28.9620355  18.0743451  20.0013259  30.5745290
  20.2100000  20.1520000  30.4780000  21.0840000  21.0380000  30.7120000
  20.5170000  18.9460000  30.5520000  16.2070000  22.2140000  29.5700000
  16.0574828  21.8216128  30.4947261  15.0610000  22.5830000  28.7340000
  15.1726760  22.0993642  27.7624572  15.0870000  24.0750000  28.4650000
  14.7280000  24.5430000  27.3690000  13.7300000  22.1220000  29.3180000
  13.6299405  22.5183002  30.3295187  12.9275729  22.5416821  28.7125321
  13.5730000  20.6150000  29.3580000  13.6200327  20.2519036  28.3320789
  14.4079315  20.1600477  29.8871858  12.2670000  20.1400000  29.9650000
  11.3480000  20.9690000  30.1770000  12.1380000  18.9240000  30.2490000
  15.4810000  24.8420000  29.4810000  15.7500816  24.3998379  30.3549257
  15.5570000  26.2740000  29.3320000  14.5914822  26.6538110  28.9957255
  16.5500000  26.6870000  28.2480000  16.2170000  27.5550000  27.4240000
  15.8870000  26.9180000  30.7210000  16.1361242  27.9652557  30.5336736
  16.7795590  26.4583685  31.1364531  14.7710000  26.8970000  31.7720000
  14.4845906  25.8885283  32.0285930  13.8922075  27.3970417  31.3647779
  15.2250000  27.6690000  33.0320000  15.0717497  28.7388000  32.8744602
  16.2984689  27.5057530  33.1474227  14.5460000  27.2290000  34.3220000
  13.5920458  27.7590444  34.4149843  14.3218374  26.1600458  34.2509216
  15.4350000  27.4970000  35.5280000  15.6206382  28.4901552  35.6024815
  14.9781262  27.1927318  36.3790608  16.3180992  27.0139813  35.4320930
  17.7220000  26.0600000  28.2690000  17.9025614  25.3964402  29.0140893
  18.7680000  26.3240000  27.2740000  19.0065831  27.3905643  27.2730531
  18.1980000  25.9640000  25.8610000  18.3640000  26.7430000  24.8960000
  20.0450000  25.5280000  27.5630000  19.7676615  24.4818902  27.7021568
  20.7530000  25.9940000  28.8480000  20.0343030  26.0845813  29.6611037
  21.1523626  26.9925216  28.6634349  21.0020000  25.5950000  26.3440000
  21.9519511  25.1057052  26.5396574  21.2007417  26.6398250  26.1016513
  20.5674969  25.1004056  25.4764456  21.9100000  25.0970000  29.3300000
  22.6643269  25.7045254  29.8301644  22.3643296  24.5499323  28.5136843
  21.5172381  24.3707070  30.0428983  17.5070000  24.8260000  25.7380000
  17.4139464  24.2101830  26.5422466  17.0340000  24.3960000  24.4300000
  17.8663243  24.4331882  23.7269516  15.9880000  25.3910000  23.8970000
  15.9830000  25.7240000  22.6990000  16.5120000  22.9410000  24.4720000
  15.8397933  22.8310790  25.3233265  15.7010000  22.5820000  23.2040000
  16.3045590  22.7578150  22.3125916  14.7867594  23.1728056  23.1520354
  15.4246136  21.5286533  23.2351844  17.6800000  22.0140000  24.6680000
  17.3658304  20.9854924  24.5056576  18.4693866  22.2490788  23.9534710
  18.0758507  22.1008637  25.6762308  15.0960000  25.9010000  24.7680000
  15.1028778  25.6133714  25.7423951  14.1250000  26.8590000  24.2950000
  13.6943699  26.5021258  23.3609551  14.8110000  28.2050000  23.9320000
  14.3610000  28.8580000  22.9880000  12.9980000  27.1180000  25.2920000
  13.4432740  27.3549227  26.2602528  12.4318537  27.9925094  24.9632274
  12.0450000  25.9420000  25.4320000  12.6044933  25.0785123  25.7857138
  11.0380000  26.2990000  26.4850000  10.5029091  25.4004859  26.7879006
  10.3263036  27.0219331  26.0839649  11.5404539  26.7313830  27.3465249
  11.3710000  25.5800000  24.1600000  12.0720711  25.0912513  23.4862562
  10.9577185  26.4716526  23.6877646  10.5583318  24.8840216  24.3705667
  15.8960000  28.5930000  24.6170000  16.1812097  28.0854955  25.4483018
  16.6570000  29.7850000  24.2090000  15.9795159  30.6387672  24.1288454
  17.2440000  29.5410000  22.8140000  17.2110000  30.4410000  21.9540000
  17.7620000  30.1250000  25.2080000  18.4286180  30.8587618  24.7513172
  18.3417204  29.2274443  25.4165938  17.2330000  30.7160000  26.5160000
  16.8113166  31.7002985  26.2958764  16.4107774  30.1008654  26.8837891
  18.2600000  30.8540000  27.6080000  19.4460000  30.6010000  27.3290000
  17.8810000  31.2170000  28.7580000  17.7560000  28.3360000  22.5970000
  17.7786137  27.6690990  23.3625842  18.3200000  27.9740000  21.2930000
  19.0887565  28.7044094  21.0394617  17.2480000  28.0460000  20.1990000
  17.4900000  28.5640000  19.1060000  18.9600000  26.6110000  21.4130000
  19.6572173  26.6212246  22.2525009  18.2032217  25.8610818  21.6293859
  19.7290000  26.1970000  20.1820000  19.3980000  25.0510000  19.4530000
  18.5648920  24.4451946  19.7698807  20.8330000  26.9180000  19.7820000
  21.1197216  27.8021940  20.3266603  20.1100000  24.6820000  18.3630000
  19.8178999  23.8003318  17.8102924  21.5780000  26.5130000  18.6800000
  22.4514262  27.0757941  18.3857420  21.1850000  25.3890000  17.9630000
  21.7427833  25.0779724  17.0927293  16.0530000  27.5340000  20.4840000
  15.8914216  27.1199321  21.3961216  14.9970000  27.5880000  19.5140000
  15.3038901  27.1141324  18.5858201  14.6840000  29.0380000  19.1410000
  14.4200000  29.3530000  17.9750000  13.7370000  26.9330000  20.0090000
  12.9310633  27.1712838  19.3130955  13.4630363  27.3563096  20.9756122
  13.7850000  25.4040000  20.1410000  14.4776879  25.1273417  20.9306315
  12.7948279  25.0716506  20.4525059  14.2170000  24.5020000  18.6650000
  16.0090000  24.4660000  18.7980000  16.4429303  25.4544653  18.6763643
  16.2853884  24.0659880  19.7734859  16.4123793  23.8175674  18.0195785
  14.6660000  29.9340000  20.1430000  14.7572127  29.6304849  21.1081049
  14.4450000  31.3450000  19.8740000  13.4965254  31.4667054  19.3469489
  15.5360000  31.9080000  18.9690000  15.2870000  32.7440000  18.1080000
  14.3740000  32.1270000  21.1930000  14.4427689  33.1913045  20.9610641
  15.2207647  31.8808614  21.8284335  13.0870000  31.9190000  21.9730000
  12.0850000  31.4270000  21.4100000  12.9880000  32.2780000  23.1720000
  16.7500000  31.4540000  19.1720000  16.8977650  30.7984238  19.9334026
  17.8890000  31.9610000  18.4280000  17.8170802  33.0478921  18.3947528
  17.9140000  31.4630000  16.9740000  18.6050000  32.0670000  16.1650000
  19.1320000  31.6010000  19.1110000  19.2688194  30.5191760  19.0986971
  19.0960453  31.9333866  20.1497074  19.9787694  32.0715096  18.6125933
  17.2060000  30.3810000  16.6240000  16.6577061  29.9028174  17.3324537
  17.2630000  29.8480000  15.2520000  18.2973968  29.6086976  15.0159894
  16.8570000  30.8800000  14.2050000  17.4030000  30.8750000  13.0890000
  16.3830000  28.6010000  15.0970000  15.3856999  28.8313443  15.4734021
  16.2828239  28.3849046  14.0340943  16.8890000  27.3530000  15.7860000
  16.9281421  27.5162112  16.8591193  15.9700000  26.2110000  15.5280000
  16.3783574  25.3013218  15.9635577  15.0028240  26.4085460  15.9903658
  15.8320996  26.0603967  14.4572639  18.2600000  27.0380000  15.3030000
  18.5614251  26.0658467  15.6917972  18.9740538  27.7589678  15.6944677
  18.2935083  27.0167715  14.2137873  15.8880000  31.7520000  14.5340000
  15.4651085  31.7259487  15.4563977  15.4300000  32.7450000  13.5840000
  15.2514898  32.2561841  12.6274227  16.4780000  33.8400000  13.3180000
  16.2610000  34.6490000  12.4310000  14.1200000  33.3830000  14.0330000
  13.8743541  34.2180630  13.3760077  14.2590000  33.8510000  15.3880000
  14.7607236  34.6668325  15.3892867  12.9550000  32.3980000  14.0120000
  12.9364068  31.8612355  13.0658935  13.0519034  31.6869978  14.8336369
  12.0233441  32.9521162  14.1213819  17.6100000  33.8210000  14.0190000
  17.7726069  33.0935281  14.7092490  18.7120000  34.7070000  13.6610000
  18.3461368  35.7304457  13.5779765  19.3590000  34.3280000  12.3360000
  20.0320000  35.1560000  11.7010000  19.8100000  34.6540000  14.7160000
  20.5185628  35.4614561  14.5233408  19.3647307  34.8136727  15.6983994
  20.5220000  33.4130000  14.7210000  21.4239759  33.5728422  14.4260613
  19.2140000  33.0650000  11.9380000  18.6386498  32.4277359  12.4790370
  19.8690000  32.5650000  10.6980000  19.7549418  31.4847587  10.6616917
  21.3690000  32.8660000  10.7430000  21.9970000  33.0850000   9.7050000
  19.2500000  33.1840000   9.4280000  19.3509052  34.2673302   9.4515140
  19.7915841  32.8271159   8.5522509  17.8030000  32.8010000   9.2120000
  17.4390000  31.6450000   9.2900000  16.9860000  33.7920000   8.7910000
  16.0335856  33.6369658   9.1087131  17.3526172  34.7269098   8.8453346
  21.9450000  32.8150000  11.9280000  21.3630004  32.5634855  12.7114800
  23.3150000  33.2600000  12.1810000  23.7904654  33.5742952  11.2499073
  24.1500000  32.1400000  12.7820000  24.0540000  31.8630000  13.9710000
  23.2710000  34.5020000  13.1130000  22.8200588  34.2316320  14.0650043
  22.6374780  35.2618300  12.6526095  24.6110000  35.1030000  13.3870000
  25.6470000  34.4770000  13.0920000  24.6690000  36.2430000  13.9040000
  24.9190000  31.4420000  11.9510000  24.9485567  31.7141254  10.9803238
  25.6920000  30.2910000  12.3880000  25.0029153  29.5480342  12.7909520
  26.6780000  30.6400000  13.5070000  26.9330000  29.8150000  14.3800000
  26.4310000  29.6600000  11.1990000  27.1586507  30.3695109  10.8014266
  26.9591773  28.7584944  11.5134794  25.7159194  29.4039062  10.4197170
  27.2940000  31.8130000  13.4230000  26.9975990  32.4919603  12.7340628
  28.2560000  32.2470000  14.4530000  29.0270368  31.4791275  14.5608741
  27.5850000  32.4290000  15.8090000  28.1580000  32.1130000  16.8540000
  28.9440000  33.5580000  14.0140000  29.4578440  33.3989381  13.0655845
  28.2084369  34.3563980  13.9037467  29.6790115  33.8479555  14.7654131
  26.3970000  32.9650000  15.8120000  26.0230025  33.3212543  14.9336273
  25.6380000  33.0890000  17.0580000  26.2580766  33.5769307  17.8128963
  25.2540000  31.7170000  17.6090000  25.3290000  31.4440000  18.7850000
  24.3810000  33.9150000  16.8180000  23.8005548  33.4313998  16.0329351
  24.6895136  34.8927970  16.4420245  23.4450000  34.1340000  18.0310000
  23.1141345  33.1720435  18.4254381  23.9865675  34.6720097  18.8104445
  22.2240000  34.9370000  17.6040000  21.6990181  34.4069957  16.8119719
  22.5773641  35.8923906  17.2093174  21.2680000  35.1750000  18.7710000
  21.8632812  35.2657887  19.6853340  20.6189062  34.2998182  18.8847517
  20.4660000  36.4280000  18.5750000  19.8503867  36.5800550  19.3643771
  19.9053270  36.3544860  17.7360371  21.0841656  37.2245571  18.4828494
  24.7920000  30.8500000  16.7160000  24.7243403  31.1369272  15.7447535
  24.2820000  29.5630000  17.1400000  23.6172394  29.7140407  17.9893981
  25.3660000  28.6460000  17.6510000  25.1260000  27.8670000  18.5810000
  23.4850000  28.9010000  15.9990000  24.1290912  28.8310028  15.1207934
  23.2142070  27.8847078  16.2878586  22.2210000  29.6630000  15.6290000
  22.4652342  30.6956451  15.4030991  21.5440000  29.0820000  14.4250000
  21.2623389  28.0438361  14.6003699  22.2648992  29.1396161  13.6240666
  20.6648424  29.6738301  14.1672903  21.2140000  29.6920000  16.7840000
  21.6075457  30.2450179  17.6331118  20.3120439  30.1975298  16.4509977
  20.9532664  28.6801982  17.0912318  26.5560000  28.7360000  17.0860000
  26.7012205  29.3736998  16.3077313  27.6170000  27.7850000  17.4180000
  27.1634869  26.8034347  17.3435335  28.0660000  27.9630000  18.8620000
  28.6150000  27.0310000  19.4570000  28.8110000  27.8480000  16.4430000
  28.4231469  27.9277995  15.4272981  29.5970000  26.5540000  16.5290000
  30.4886440  26.6619800  15.9131056  29.9577439  26.3778061  17.5378008
  29.7320000  29.0770000  16.6950000  30.5088597  29.1159996  15.9305546
  29.1522964  29.9853907  16.6212364  30.2082223  29.0290249  17.6718619
  28.8310000  25.3300000  16.0440000  28.0758966  25.0263410  16.7652380
  29.5201541  24.4985604  15.9283762  28.3633823  25.5358889  15.0817986
  27.8410000  29.1390000  19.4320000  27.4636931  29.9069365  18.8888871
  28.2080000  29.3480000  20.8330000  29.2666957  29.1258322  20.9528814
  27.4860000  28.4530000  21.8100000  27.9230000  28.2810000  22.9390000
  28.0030000  30.8210000  21.2130000  26.9736319  31.1090643  20.9950500
  28.1471147  30.9350046  22.2885551  28.9570000  31.7810000  20.5000000
  28.7458863  31.7519964  19.4304107  28.7400758  32.7940823  20.8464481
  30.4200000  31.4830000  20.7470000  31.2230000  31.5080000  19.7730000
  30.7760000  31.2080000  21.9100000  26.3800000  27.8420000  21.3750000
  26.0534300  28.0270180  20.4313548  25.6240000  26.9150000  22.2120000
  25.5703809  27.2958516  23.2315666  26.2430000  25.5430000  22.2690000
  25.7720000  24.7250000  23.0700000  24.1930000  26.7680000  21.6780000
  23.7332529  25.8869650  22.1269484  24.2160126  26.5786313  20.6050850
  23.2760000  27.9330000  21.9650000  23.2860000  29.0670000  21.1720000
  23.9797758  29.1391475  20.3487805  22.3870000  27.9010000  23.0280000
  22.3440808  27.0312240  23.6701673  22.4340000  30.1260000  21.4240000
  22.4586563  31.0087906  20.8048398  21.5270000  28.9520000  23.2580000
  20.8291705  28.8985518  24.0835727  21.5520000  30.0590000  22.4800000
  20.7080000  31.1140000  22.7130000  20.1467347  30.9614457  23.4829798
  27.2160000  25.2520000  21.4100000  27.5732760  25.9819453  20.8027341
  27.7470000  23.8970000  21.2300000  27.0315563  23.1668904  21.6068179
  29.0760000  23.6630000  21.9500000  29.9660000  24.5270000  21.9520000
  27.9500000  23.6160000  19.7300000  28.5003147  22.6820471  19.6264685
  28.5626272  24.4004746  19.2849766  26.6570000  23.4930000  18.9740000
  25.9650000  24.6110000  18.6370000  26.3367130  25.5794980  18.9263512
  26.1550000  22.2450000  18.5930000  26.7001209  21.3521731  18.8343955
  24.7870000  24.5350000  17.9280000  24.2543070  25.4401492  17.6745507
  24.9740000  22.1420000  17.9110000  24.5950444  21.1679036  17.6321426
  24.2680000  23.2920000  17.5760000  23.3372955  23.2494814  17.0458214
  29.2530000  22.4820000  22.4960000  28.5136026  21.7968870  22.3872132
  30.5520000  21.9750000  22.9550000  31.0248318  22.7163598  23.6007023
  31.4870000  21.6700000  21.7920000  31.0330000  21.5860000  20.6530000
  30.3530000  20.7010000  23.7220000  31.3039649  20.3252650  24.1011540
  29.9098781  19.9409914  23.0743276  29.6892506  20.8795312  24.5689579
  32.8050000  21.6090000  22.0550000  33.1508510  21.7855588  22.9838015
  33.7440000  21.1780000  21.0100000  33.6756048  21.8411813  20.1499345
  33.4600000  19.7610000  20.5090000  33.4460000  19.5220000  19.3030000
  35.1870000  21.2560000  21.5520000  35.8686658  20.7634189  20.8569291
  35.2362545  20.6950583  22.4872363  35.6560000  22.6690000  21.8240000
  34.9637038  23.1572605  22.5147581  36.6298440  22.6187093  22.3161723
  35.7890000  23.4740000  20.5540000  36.1050000  22.8670000  19.4990000
  35.5930000  24.7160000  20.6010000  33.2420000  18.8130000  21.4170000
  33.2470570  19.0618995  22.3909805  32.9060000  17.4090000  21.0710000
  33.3490669  17.1311329  20.1134185  31.3810000  17.3830000  20.9570000
  30.6550000  17.3650000  21.9580000  33.4030000  16.4100000  22.1480000
  34.4669055  16.5908926  22.3100334  32.8920456  16.5960965  23.0940368
  33.2260000  14.8870000  21.7440000  33.7750000  13.9890000  22.4420000
  32.4990000  14.4530000  20.7900000  30.8950000  17.4980000  19.7330000
  31.5295940  17.4640084  18.9506150  29.4560000  17.6340000  19.4740000
  28.9082719  17.0980158  20.2355023  29.1490000  17.0540000  18.1190000
  30.0360000  16.6380000  17.3670000  29.1120000  19.1320000  19.5290000
  29.5153999  19.5435013  20.4538087  27.6990000  19.3090000  19.5660000
  27.5037184  19.7447897  20.4140522  29.6670000  19.9360000  18.3450000
  30.7492601  19.8251522  18.3098927  29.4380519  20.9893454  18.4850086
  29.2312138  19.5997000  17.4067173  27.8450000  17.0300000  17.8030000
  27.1799139  17.4276601  18.4573723  27.3900000  16.6470000  16.4920000
  28.0924548  17.0550141  15.7682680  26.0290000  17.2680000  16.2240000
  25.3150000  17.6550000  17.1440000  27.3680000  15.1240000  16.3570000
  27.2117188  14.8650816  15.3108138  28.3598497  14.7514170  16.6109076
  26.3820000  14.3690000  17.2070000  26.7174864  13.3343723  17.2674931
  26.3995269  14.7748365  18.2195239  24.6450000  14.3620000  16.5950000
  24.8630000  13.5480000  15.0380000  25.7191912  12.8753445  15.0795207
  23.9667064  12.9778669  14.7885131  25.0334412  14.2970173  14.2639331
  25.7280000  17.3810000  14.9390000  26.4084273  17.0703983  14.2514805
  24.4320000  17.8950000  14.4580000  23.6966351  17.8280618  15.2487760
  24.0120000  17.0780000  13.2660000  24.8030000  16.8290000  12.3620000
  24.5660000  19.3530000  14.0250000  24.7976854  19.9624707  14.9010419
  25.4239974  19.4194918  13.3549900  23.3920000  19.9710000  13.3140000
  22.0840000  19.8360000  13.7780000  21.8814897  19.2590034  14.6674021
  23.5750000  20.7480000  12.1870000  24.5746056  20.8828048  11.7960542
  21.0310000  20.4630000  13.1380000  20.0246301  20.3554802  13.5201442
  22.5220000  21.4110000  11.5690000  22.6960407  22.0426533  10.7122153
  21.2660000  21.2650000  12.0430000  20.2400000  21.9570000  11.4080000
  19.4043258  21.8581176  11.8992332  22.7590000  16.6600000  13.2470000
  22.1459712  16.8576307  14.0329675  22.2270000  15.9790000  12.0580000
  22.7792693  16.3067722  11.1751201  20.7560000  16.2830000  11.8370000
  19.9330000  16.0820000  12.7150000  22.3950000  14.4650000  12.1890000
  21.7276789  14.0901778  12.9614165  23.4181559  14.2666188  12.5050872
  22.1390000  13.6900000  10.8880000  22.7722593  14.0840518  10.0951055
  21.1096935  13.8440286  10.5881670  22.3730000  12.2130000  11.0080000
  22.8200000  11.7210000  12.0450000  22.0800000  11.4950000   9.9400000
  22.1690932  10.4998909   9.9844062  21.7661090  11.9594813   9.0875346
  20.4620000  16.7640000  10.6280000  21.2195340  16.8965304   9.9760859
  19.1020000  16.6790000  10.0730000  18.3465174  16.8280464  10.8504052
  19.0160000  15.2520000   9.5370000  19.7380000  14.9050000   8.6080000
  18.9290000  17.7120000   8.9680000  17.9969185  17.5244382   8.4423135
  19.7438652  17.6295530   8.2489693  18.8760000  19.0930000   9.5450000
  17.9720000  19.3960000  10.3300000  19.8630000  19.9300000   9.2190000
  19.8845169  20.8112883   9.7164990  20.6113255  19.6496893   8.6166026
  18.2030000  14.4060000  10.1670000  17.6147846  14.7518687  10.9212824
  18.2990000  12.9910000   9.9550000  19.3220324  12.7063018  10.1891498
  18.1270000  12.4940000   8.5210000  18.6950000  11.4310000   8.2350000
  17.4110000  12.2190000  10.9210000  16.3756884  12.5388299  10.7973357
  17.4616675  11.1551956  10.6873125  17.8260000  12.4180000  12.3730000
  17.1776720  11.8153048  12.9923304  17.6668597  13.4580011  12.6507941
  19.5560000  12.0010000  12.7670000  19.4910000  10.2310000  12.6030000
  18.7426219   9.8247873  13.2826153  20.4677007   9.8182554  12.8552086
  19.2406493   9.9611662  11.5770334  17.4880000  13.1930000   7.5870000
  17.5240000  12.7430000   6.1850000  17.1784070  11.7086878   6.1150916
  18.8920000  12.8670000   5.5160000  19.0290000  12.3800000   4.3860000
  16.5260000  13.6740000   5.4900000  17.0396311  14.5417296   5.0793264
  15.9774752  13.1526710   4.7050038  15.6070000  14.1350000   6.6110000
  14.8619410  13.3910183   6.8490685  15.1161456  15.0762611   6.3720259
  16.5370000  14.3010000   7.7770000  17.0498626  15.2597396   7.7033626
  15.9823829  14.2171512   8.7126183  19.8340000  13.5510000   6.1270000
  19.6727062  13.8435167   7.0826634  21.1130000  13.9370000   5.5230000
  21.2265136  13.4210913   4.5714308  22.2540000  13.5120000   6.4300000
  22.0610000  13.2020000   7.6020000  21.1170000  15.4410000   5.3080000
  22.0835658  15.7565756   4.9166353  20.9910359  15.9161395   6.2824312
  20.0170000  15.9620000   4.3760000  19.0486617  15.5901077   4.7019472
  19.9230000  17.4560000   4.3950000  20.8598223  17.8914659   4.0464714
  19.7171931  17.7980422   5.4081317  19.1164771  17.7851591   3.7377753
  20.2600000  15.4960000   2.9820000  19.5202146  15.9395579   2.3148251
  20.1634406  14.4120405   2.9231359  21.2533850  15.7947894   2.6479919
  23.5030000  13.5180000   5.9250000  24.6140000  13.0390000   6.7630000
  24.3739287  12.0204243   7.0659022  24.9030000  13.9240000   7.9660000
  24.6760000  15.1150000   7.9530000  25.8100000  13.0190000   5.7930000
  26.4919830  12.1949708   6.0056486  26.3476283  13.9687787   5.8332803
  25.1590000  12.8700000   4.4410000  25.8168703  13.2118240   3.6414912
  24.8910185  11.8242359   4.2777284  23.9120000  13.6990000   4.5140000
  23.1704585  13.3516036   3.7962746  24.1588273  14.7482453   4.3442779
  25.4260000  13.3310000   9.0110000  25.7580000  14.0900000  10.2050000
  24.9357380  14.7423568  10.4992574  27.0250000  14.9190000  10.0530000
  27.8850000  14.6400000   9.2280000  25.9610000  12.9970000  11.2560000
  25.0106785  12.7181929  11.6939524  26.6419313  13.3112513  12.0481976
  26.5150000  11.8530000  10.4810000  26.3697350  10.9062619  11.0023260
  27.5729299  12.0204248  10.2729338  25.7210000  11.8950000   9.1660000
  26.3272157  11.5101158   8.3455828  24.7928012  11.3316412   9.2685681
  27.1350000  15.9200000  10.9280000  26.3423871  16.1338705  11.5245099
  28.3550000  16.7140000  11.1170000  29.1053938  16.4508186  10.3696420
  28.8910000  16.4200000  12.5040000  28.1660000  16.5560000  13.4700000
  28.0320000  18.1780000  10.9910000  28.9037136  18.7774127  11.2450652
  27.7398355  18.3993374   9.9634058  27.2110184  18.4435830  11.6587562
  30.1800000  16.1080000  12.5900000  30.7323514  16.1223930  11.7462519
  30.8760000  15.7850000  13.8390000  30.1615750  15.8039628  14.6646826
  31.9430000  16.8400000  14.1400000  32.7740000  17.1550000  13.2630000
  31.5130000  14.3740000  13.8150000  32.2612827  14.3076184  14.6068512
  32.0318101  14.2206518  12.8673330  30.4970000  13.2910000  14.0390000
  29.8630000  12.6710000  12.9850000  30.0884126  12.9807379  11.9720869
  30.1720000  12.8980000  15.3200000  30.6453459  13.3826548  16.1677604
  28.9100000  11.6910000  13.1970000  28.4158736  11.2124623  12.3676558
  29.2110000  11.9050000  15.5450000  28.9616884  11.6262900  16.5586972
  28.5780000  11.3210000  14.4770000  27.6400000  10.3330000  14.7720000
  27.5302099  10.2480085  15.7201369  31.8890000  17.3620000  15.3600000
  31.1685160  17.0499655  16.0041485  32.8360000  18.3660000  15.8230000
  33.0078653  18.2298300  16.8918728  33.7949536  18.2748896  15.3114079
  32.2740000  19.7580000  15.5820000  31.5380000  19.9670000  14.5940000
  32.6640000  20.7200000  16.4300000  33.2425156  20.4678726  17.2281327
  32.0620000  22.0140000  16.4060000  30.9819428  21.8834869  16.4874789
  32.2760000  22.7580000  15.0930000  31.3590000  23.4210000  14.5980000
  32.5160000  22.8390000  17.6190000  32.3960503  22.1909206  18.4854153
  33.5822907  23.0552202  17.5102889  31.8030000  24.0610000  17.8830000
  31.9571947  24.7720009  17.0705797  30.7392648  23.8545958  18.0058167
  32.3690000  24.6290000  19.1850000  33.4488801  24.7611600  19.0730461
  32.2432692  23.8712018  19.9602835  31.7990000  25.8470000  19.7130000
  31.0966092  25.7479280  20.4326432  32.1810000  27.0730000  19.3770000
  33.0420000  27.2660000  18.3890000  33.1029675  28.1681403  17.9472446
  33.6560225  26.5073161  18.1202135  31.6590000  28.1090000  20.0070000
  30.9863754  27.9673377  20.7318173  31.9195019  29.0627735  19.7732650
  33.4540000  22.6610000  14.4880000  34.2259084  22.2584838  14.9952170
  33.7170000  23.3330000  13.2360000  33.4592312  24.3889738  13.3608194
  32.7970000  22.8210000  12.1100000  32.2380000  23.6170000  11.3460000
  35.1780000  23.2790000  12.8790000  35.2922343  23.5987431  11.8415053
  35.5352773  22.2493242  12.9510291  36.0330000  24.1860000  13.7410000
  35.5450000  25.0290000  14.5170000  37.2500000  24.0940000  13.6610000
  32.6430000  21.5090000  11.9980000  33.0871167  20.9005657  12.6689046
  31.7710000  20.9300000  10.9710000  32.0978520  21.3092385  10.0000583
  30.3300000  21.3510000  11.1710000  29.6010000  21.6150000  10.2030000
  31.8850000  19.4270000  10.9490000  31.2172090  18.9892676  11.6932051
  31.6017157  19.0695842   9.9594328  32.9051829  19.1105490  11.1728328
  29.9000000  21.4290000  12.4250000  30.5339455  21.1822848  13.1788934
  28.5460000  21.8830000  12.7400000  27.8346031  21.2780627  12.1776753
  28.3640000  23.3330000  12.2600000  27.4020000  23.6520000  11.6050000
  28.2200000  21.7320000  14.2240000  28.9972279  22.2244830  14.8068682
  26.9320000  22.4190000  14.5650000  26.1170808  22.0271828  13.9562027
  27.0064158  23.4954938  14.4178940  26.7017698  22.2598526  15.6181647
  28.1980000  20.2860000  14.6420000  27.6779077  19.6836969  13.8989726
  29.2020715  19.9015317  14.7497214  27.6958463  20.1822739  15.6046700
  29.3320000  24.2010000  12.6100000  30.1224815  23.8998994  13.1766950
  29.2490000  25.5830000  12.1960000  28.3245718  26.0025089  12.5938928
  29.1920000  25.7340000  10.6680000  28.4080000  26.5200000  10.1520000
  30.4260000  26.4000000  12.7690000  31.3492928  26.1406900  12.2488693
  30.5453060  26.1515078  13.8187280  30.1410000  27.8980000  12.6190000
  30.0728183  28.1392513  11.5561765  29.1680101  28.1112900  13.0686273
  31.1760000  28.8100000  13.2460000  32.1580000  28.2930000  13.8190000
  30.9800000  30.0480000  13.1450000  30.0250000  24.9790000   9.9720000
  30.6956183  24.4048258  10.4782744  30.0840000  25.0270000   8.5010000
  30.2170835  26.0650262   8.1925210  28.7820000  24.5530000   7.8850000
  28.3220000  25.0950000   6.8860000  31.2540000  24.2210000   7.9730000
  31.1920108  23.2211231   8.4074646  31.1773681  24.1287312   6.8879823
  32.5900000  24.8560000   8.3160000  32.7715966  25.7070455   7.6595203
  32.5832384  25.2250032   9.3410272  33.7220000  23.8740000   8.1820000
  33.5640000  22.8030000   7.5800000  34.8770000  24.2490000   8.6890000
  35.6806178  23.7259341   8.4093930  34.9244277  24.9936971   9.3639330
  28.1600000  23.5690000   8.5200000  28.6051473  23.1565426   9.3334320
  26.8510000  23.0720000   8.0710000  26.9089134  22.8299966   7.0093431
  25.7670000  24.1290000   8.2370000  25.0280000  24.4210000   7.3170000
  26.4620000  21.8000000   8.8170000  26.4791059  21.9819562   9.8911479
  27.4010000  20.7860000   8.5100000  28.2348899  21.0152841   8.9496025
  25.0610000  21.3240000   8.4290000  24.3047239  22.0529892   8.7160429
  24.8550050  20.3898546   8.9522979  25.0222540  21.1434280   7.3542042
  25.7330000  24.7460000   9.4110000  26.4041633  24.4967184  10.1332548
  24.7870000  25.7980000   9.6510000  23.7846382  25.4242298   9.4462722
  25.0070000  26.9700000   8.6780000  24.0540000  27.5590000   8.1650000
  24.8510000  26.2430000  11.0880000  25.8913014  26.4582560  11.3376427
  24.2936747  27.1752105  11.1884760  24.2920000  25.2460000  12.1130000
  24.7718091  24.2816418  11.9501069  24.6450000  25.6740000  13.5490000
  24.3145174  24.9063578  14.2484328  24.1327350  26.6054024  13.7776206
  25.7250241  25.8057854  13.6420406  22.7740000  25.0270000  11.9590000
  22.2540316  25.9826780  12.0073137  22.4184576  24.3882012  12.7657738
  22.5567277  24.5324608  11.0151306  26.2540000  27.3580000   8.4550000
  27.0275050  26.9220826   8.9492954  26.5110000  28.4740000   7.5410000
  25.9751252  29.3554245   7.8966135  25.9800000  28.1450000   6.1390000
  25.4430000  29.0470000   5.4700000  27.9920000  28.8000000   7.4950000
  28.1550350  29.6675257   6.8544060  28.5521877  27.9499063   7.1034394
  28.3468408  29.0277651   8.5015075  26.1730000  26.9180000   5.6830000
  26.6995582  26.2539955   6.2416589  25.6060000  26.4940000   4.4170000
  25.9430414  25.4807544   4.2002585  25.9687008  27.1500040   3.6238555
  24.0880000  26.5130000   4.3820000  23.4520000  27.0190000   3.4310000
  23.4950000  25.9600000   5.4120000  24.0670365  25.5473905   6.1426153
  22.0600000  25.9500000   5.5590000  21.6385332  25.3162038   4.7777415
  21.4360000  27.3210000   5.3960000  20.4790000  27.5130000   4.6580000
  21.6530000  25.3640000   6.9400000  22.2674812  25.8533030   7.6916093
  21.9109466  24.3042437   6.9677725  20.1830000  25.5530000   7.3800000
  19.9165206  26.6036458   7.2781371  19.3370000  24.7880000   6.4720000
  18.3269868  24.8096649   6.8711801  19.3513937  25.2139215   5.4708058
  19.6596136  23.7479101   6.4341319  19.9560000  25.2360000   8.8520000
  19.1369920  25.8517313   9.2255491  20.8482950  25.4665442   9.4330370
  19.6992336  24.1838882   8.9806053  22.0150000  28.2930000   6.1010000
  22.7842036  28.0642997   6.7235116  21.5060000  29.6480000   6.0950000
  20.4213949  29.5943016   6.0974886  21.8500000  30.4140000   4.8270000
  21.3800000  31.5310000   4.6500000  21.9260000  30.4020000   7.3550000
  23.0161004  30.4234961   7.4078995  21.5836368  31.4355064   7.2842345
  21.3540000  29.8180000   8.6160000  22.1780000  29.5460000   9.6710000
  23.2384489  29.7311411   9.5863072  20.0030000  29.5540000   8.7490000
  19.3209915  29.7902846   7.9436814  21.6480000  29.0200000  10.8830000
  22.3286144  28.7587418  11.6677765  19.4920000  29.0260000   9.9180000
  18.4304281  28.8584189  10.0047664  20.3270000  28.7640000  10.9780000
  19.9180206  28.3509269  11.8896452  22.6460000  29.8220000   3.9370000
  23.0649124  28.9253327   4.1570976  22.8510000  30.3890000   2.6110000
  22.9064130  31.4759898   2.6793598  21.6680000  30.0580000   1.7030000
  21.3760000  30.7800000   0.7450000  24.1690000  29.8830000   2.0430000
  24.1547782  28.8005779   1.9353486  25.2300000  30.2680000   2.9320000
  24.8305329  30.5980140   3.7427104  24.4730000  30.5120000   0.6850000
  25.5038626  30.2882433   0.4110687  23.8103606  30.1003288  -0.0747338
  24.3449264  31.5928894   0.7350695  21.0130000  28.9370000   1.9880000
  21.2990956  28.3667875   2.7757404  19.9160000  28.4950000   1.1110000
  19.9065999  29.0918292   0.2002931  18.5370000  28.6970000   1.7130000
  17.5690000  28.7740000   0.9580000  20.0790000  27.0260000   0.6290000
  19.2572953  26.7895008  -0.0488515  21.3450000  26.8570000  -0.1100000
  22.2048058  27.0497181   0.5341066  21.3715808  27.5588848  -0.9432632
  21.4186489  25.8461431  -0.5110726  20.0850000  26.0630000   1.6870000
  19.1635012  26.1259805   2.2638534  20.9310773  26.2259623   2.3559055
  20.1554160  25.0538461   1.2789708  18.4320000  28.7460000   3.0550000
  19.2365846  28.6455306   3.6672056  17.1130000  28.9490000   3.5970000
  16.5013271  29.4753814   2.8696212  17.1320000  29.8310000   4.8160000
  18.1720000  30.0480000   5.4320000  16.3780000  27.6990000   3.9650000
  15.3466915  27.9220073   4.2380201  16.3604275  27.0828216   3.0692254
  16.9810000  27.0280000   5.0080000  16.8364766  27.5700716   5.9436606
  18.0496692  26.9437270   4.8246390  16.3040000  25.2510000   5.2480000
  16.5220000  24.5950000   3.7920000  15.8103685  25.0049317   3.0761494
  16.3626851  23.5184424   3.8570755  17.5411620  24.7796382   3.4525935
  15.9770000  30.4020000   5.0960000  15.1774061  30.1891147   4.5082733
  15.7470000  31.1730000   6.3160000  16.6795195  31.3341239   6.8566795
  14.7720000  30.4100000   7.2000000  13.7530000  29.9120000   6.7130000
  15.1460000  32.5110000   5.9620000  15.8616451  33.0846204   5.3728286
  14.2425136  32.3569420   5.3699787  14.8000000  33.2490000   7.1450000
  15.6295786  33.5161166   7.5678578  15.0510000  30.3620000   8.4840000
  15.8973093  30.8101636   8.8216543  14.0950000  29.8860000   9.4730000
  13.3913964  29.1800724   9.0296511  13.3410000  31.1510000   9.9330000
  13.8810000  32.0200000  10.6150000  14.7730000  29.2250000  10.6680000
  15.4614511  29.9388205  11.1255061  15.5740000  27.9990000  10.2220000
  14.8924912  27.2349616   9.8525490  16.2354903  28.2679900   9.4007928
  13.7180000  28.8280000  11.7000000  14.1846151  28.3589578  12.5642986
  13.1798746  29.7005944  12.0659821  13.0058991  28.1247566  11.2646564
  16.4390000  27.3840000  11.3130000  17.0672857  28.1477762  11.7709525
  15.8183005  26.9160207  12.0761514  17.0798239  26.6183602  10.8755333
  12.1080000  31.2630000   9.4940000  11.7182587  30.5183752   8.9255317
  11.3240000  32.4650000   9.7350000  11.9749236  33.3382530   9.8171651
  10.5240000  32.3800000  11.0070000  10.1220000  33.4280000  11.5050000
  10.3690000  32.6870000   8.5890000   9.6070606  33.4093446   8.8876288
   9.8511649  31.7537157   8.3576679  11.0290000  33.2450000   7.3180000
  12.1610000  33.7990000   7.3690000  10.4280000  33.1740000   6.2290000
  10.2710000  31.1880000  11.5510000  10.6258261  30.3548756  11.1002355
   9.5230000  31.0580000  12.7860000   9.9094755  31.7704549  13.5170680
   9.7240000  29.6620000  13.3250000   9.9600000  28.7050000  12.5720000
   8.0300000  31.3170000  12.5810000   7.6650581  30.7362091  11.7374363
   7.8658830  32.3760161  12.3782810   7.4776994  31.0444109  13.4819057
   9.6390000  29.5250000  14.6330000   9.4593659  30.3349949  15.2099702
   9.6950000  28.2440000  15.3060000   9.5205832  27.4218536  14.6117261
   8.6510000  28.2110000  16.3910000   8.5320000  29.1880000  17.1750000
  11.0250000  28.0380000  15.9860000  11.1846454  28.8384300  16.7102903
  11.0420000  26.7140000  16.7380000  10.4046457  26.7626151  17.6198028
  12.0585156  26.5018675  17.0685827  10.6984693  25.9123320  16.0876179
  12.2020000  28.0800000  15.0090000  13.1302013  27.9874809  15.5686139
  12.2209466  29.0269400  14.4755869  12.1219461  27.2603989  14.2956079
   7.8390000  27.1660000  16.4630000   7.9378174  26.4189325  15.7781785
   6.8870000  26.9920000  17.5480000   7.0830928  27.7247713  18.3318795
   7.0990000  25.6160000  18.1250000   7.0320000  24.6120000  17.3930000
   5.4430000  27.1430000  17.1290000   5.3199157  28.1347016  16.6932831
   5.1736632  26.3867115  16.3901610   4.5450000  27.0170000  18.3740000
   4.5633937  25.9797836  18.7169851   4.9689098  27.6323405  19.1720334
   3.1140000  27.4270000  18.1930000   2.7570000  27.9190000  17.0990000
   2.3330000  27.2120000  19.1730000   7.3580000  25.5550000  19.4300000
   7.3579442  26.4093437  19.9662163   7.5570000  24.3120000  20.1300000
   7.7659664  23.5171612  19.4165259   6.2840000  23.9420000  20.8730000
   5.8710000  24.6460000  21.8020000   8.7520000  24.3630000  21.0830000
   8.5897334  25.1627268  21.8071457   9.9770000  24.6210000  20.3430000
  10.4319010  25.3442752  20.7832180   8.9770000  23.0690000  21.8200000
   9.4725258  23.2733286  22.7680295   8.0446198  22.5512817  22.0342852
   9.5994729  22.4071650  21.2223687   5.6010000  22.9040000  20.4320000
   5.9799842  22.3609459  19.6645198   4.3690000  22.4460000  21.0460000
   3.7415430  23.3107104  21.2727926   4.6070000  21.7070000  22.3490000
   3.8870000  21.9090000  23.3320000   3.5900000  21.5200000  20.1180000
   2.6302644  21.2894172  20.5819365   4.1339525  20.5789658  20.0187930
   3.3250000  22.0680000  18.7580000   3.7300000  21.3340000  17.6230000
   4.2234736  20.3810351  17.7484970   2.6820000  23.2590000  18.5470000
   2.3388357  23.8492092  19.3873280   3.5230000  21.8160000  16.3600000
   3.8107468  21.2011607  15.5255042   2.5020000  23.7620000  17.2420000
   2.0232058  24.7236150  17.1026297   2.8990000  23.0210000  16.1540000
   2.7283638  23.3937145  15.1547831   5.6010000  20.8340000  22.3560000
   6.1507288  20.7349882  21.5112222   5.9120000  19.9650000  23.4670000
   5.4237942  20.3329992  24.3678025   7.4100000  19.9370000  23.7070000
   8.2010000  19.8970000  22.7540000   5.4500000  18.5300000  23.2200000
   5.6285723  17.9543279  24.1267041   6.0480601  18.0821680  22.4259660
   4.0040000  18.4150000  22.8700000   3.5540000  17.6140000  21.8430000
   4.1318020  17.0760841  21.1888256   2.8920000  18.9070000  23.4780000
   2.8821109  19.5577914  24.3410004   2.2230000  17.6600000  21.8150000
   1.5933294  17.1271253  21.1183294   1.7930000  18.4270000  22.8080000
   7.8180000  19.9720000  24.9720000   7.1358796  20.0653549  25.7189426
   9.2130000  19.8000000  25.3530000   9.7116160  19.2929058  24.5401601
   9.2300000  18.8980000  26.5640000   8.3660000  18.9950000  27.4580000
   9.9500000  21.1510000  25.6050000   9.8080740  21.7625555  24.7127164
  11.4400000  20.9400000  25.7960000  11.8083323  20.2989001  24.9975824
  11.6168144  20.4265533  26.7421712   9.3700000  21.9220000  26.8070000
   9.7127947  22.9548121  26.7990553   9.6827404  21.4566415  27.7447834
   8.2837561  21.9158340  26.7845459  12.2700000  22.1860000  25.7710000
  12.1369688  22.6970611  24.8171658  13.3208438  21.9214193  25.8809308
  11.9943370  22.8561590  26.5833441  10.1640000  17.9850000  26.6120000
  10.8435855  17.9565676  25.8585151  10.3840000  17.1140000  27.7550000
   9.7415787  16.2375587  27.6905028  10.1697408  17.6570437  28.6774221
  11.8160000  16.6730000  27.8010000  12.6290000  16.9870000  26.9270000
  12.1660000  15.9540000  28.8500000  11.5013865  15.7430350  29.5911812
  13.5590000  15.5480000  29.0280000  13.9214614  15.1842392  28.0700167
  13.6790000  14.4260000  30.0180000  12.8410000  14.2840000  30.9130000
  14.4350000  16.7050000  29.4750000  14.3950316  17.5054026  28.7385535
  15.4674142  16.3679026  29.5635483  14.0270000  17.2010000  30.7320000
  13.2258602  17.7677386  30.5839507  14.7590000  13.6840000  29.8960000
  15.3895345  13.8974520  29.1271289  15.2130000  12.7050000  30.9020000
  15.1086322  13.1204226  31.9051963  16.6360000  12.3420000  30.6390000
  17.0440000  12.2020000  29.4690000  14.4430000  11.3450000  30.8180000
  14.5382460  10.9407995  29.8109700  14.8975761  10.6374468  31.5113678
  13.0900000  11.4340000  31.1600000  12.8305156  12.3653076  31.2046395
  17.3580000  12.0580000  31.7190000  16.9180719  12.0554521  32.6280752
  18.7080000  11.4800000  31.5970000  19.1746871  11.4854889  32.5843116
  19.6690000  12.1890000  30.6430000  20.4690000  11.5230000  29.9770000
  18.6690000  10.0320000  31.1200000  18.6756747  10.0504076  30.0378922
  19.5330431   9.4693902  31.4670621  17.3920000   9.3240000  31.4820000
  17.1000000   9.1000000  32.6330000  16.6270000   8.9420000  30.4760000
  15.8819899   8.2923656  30.6956714  16.8648935   9.1244425  29.5213761
  19.6440000  13.5110000  30.5710000  18.9978942  14.0092534  31.1604407
  20.5760000  14.2860000  29.7870000  20.7387916  15.2445500  30.2821218
  21.5389491  13.7753943  29.7384890  20.1290000  14.5840000  28.3590000
  20.8620000  15.2280000  27.6450000  18.9070000  14.1200000  28.0120000
  18.3636368  13.5637763  28.6605329  18.3740000  14.3950000  26.6650000
  19.0961279  14.9644096  26.0860945  17.0880000  15.2090000  26.7840000
  16.2140000  14.9430000  27.6360000  18.0820000  13.0860000  25.9200000
  17.3303688  12.5175711  26.4712841  17.6141218  13.3790274  24.9786459
  19.2830000  12.2050000  25.6060000  20.2080754  12.7645199  25.7270374
  19.3020000  11.0160000  26.5420000  19.3146509  11.3617636  27.5756091
  18.4191536  10.3951854  26.3830359  20.1996629  10.4243643  26.3700140
  19.2040000  11.6620000  24.2140000  19.4852346  12.4455739  23.5130162
  18.1872270  11.3288375  23.9931106  19.8873662  10.8219737  24.0995457
  16.9550000  16.1910000  25.9050000  17.7240609  16.3478216  25.2603401
  15.7990000  17.0360000  25.7780000  15.0778603  16.8159486  26.5620283
  15.1480000  16.7630000  24.4130000  15.8470000  16.6400000  23.4350000
  16.1990000  18.5320000  25.8830000  16.9092115  18.7471229  25.0911782
  15.0070000  19.4300000  25.6740000  14.2692617  19.2416844  26.4534979
  14.5532395  19.2694415  24.6972476  15.3247299  20.4697351  25.7240858
  16.8660000  18.8610000  27.1910000  16.2172558  18.6074785  28.0267114
  17.8086959  18.3208908  27.2863360  17.0897678  19.9271836  27.2278891
  13.8240000  16.7030000  24.3760000  13.3152952  16.8602465  25.2404398
  13.0400000  16.4260000  23.1680000  13.7159135  16.3061397  22.3306617
  12.1050000  17.5850000  22.9140000  11.4680000  18.0740000  23.8510000
  12.2480000  15.1210000  23.3380000  11.4733936  15.2741230  24.0913259
  11.7449354  14.8924720  22.3973216  13.0830000  13.9400000  23.7480000
  13.2850000  13.6200000  25.0770000  12.8232178  14.2446392  25.8299648
  13.6880000  13.1160000  22.7980000  13.5589203  13.3281544  21.7455537
  14.0670000  12.5550000  25.4870000  14.2089318  12.3539506  26.5376833
  14.4670000  12.0280000  23.1970000  14.9306380  11.3928588  22.4564591
  14.6760000  11.7530000  24.5350000  15.4210000  10.6590000  24.8710000
  15.3176256  10.4305361  25.7975829  12.0020000  18.0030000  21.6280000
  12.5468997  17.5027004  20.9318792  11.1210000  19.1020000  21.2000000
  10.4811631  19.4012665  22.0284214  10.2350000  18.6710000  20.0400000
  10.7830000  18.2750000  18.9850000  11.8750000  20.3660000  20.7120000
  11.1517372  21.1184208  20.4018210  12.7100000  20.0610000  19.5980000
  12.5955689  19.1158194  19.4373926  12.7660000  20.9530000  21.7840000
  13.2635301  21.8412474  21.3934608  12.1588397  21.2392149  22.6421184
  13.5175673  20.2294729  22.0983008   8.9230000  18.7850000  20.1780000
   8.5490698  19.1443697  21.0531547   7.9970000  18.5730000  19.0680000
   8.4952433  18.0404717  18.2557501   7.5880000  19.9440000  18.5720000
   7.0200000  20.7200000  19.3670000   6.7880000  17.7510000  19.5050000
   7.1392203  16.8953672  20.0835369   6.1394826  18.3442814  20.1498392
   5.9880000  17.2400000  18.3160000   5.5001496  18.0916562  17.8368328
   6.6899726  16.8185209  17.5937704   4.9400000  16.1890000  18.6240000
   4.5290000  16.0620000  19.7980000   4.5500000  15.4610000  17.6620000
   7.9080000  20.2470000  17.3210000   8.3187798  19.5375727  16.7148414
   7.8220000  21.6070000  16.8380000   7.0094059  22.1004631  17.3746078
   7.4180000  21.7100000  15.4080000   7.3470000  20.7060000  14.6770000
   9.0680000  22.3810000  17.1600000   9.2766577  22.2301221  18.2214557
   8.9212439  23.4425944  17.0241884  10.1890000  22.1180000  16.4580000
  10.0963842  22.5390027  15.4543001  10.3439855  21.0412896  16.3699882
  11.5000000  22.7670000  17.2380000  11.8119328  22.1431283  18.0757787
  11.2648789  23.7713869  17.5977983  12.4620000  22.8540000  16.2030000
  12.2797347  23.5448042  15.4684269  13.4590000  22.0080000  15.9770000
  13.7860000  21.0280000  16.8230000  14.4878084  20.3574055  16.5058519
  13.2793182  20.9101640  17.6846805  14.2070000  22.2100000  14.9030000
  13.9296359  22.9573232  14.2594615  14.9617038  21.5638746  14.6573574
   7.1570000  22.9400000  14.9880000   7.2099453  23.6955601  15.6671510
   7.0940000  23.2940000  13.5730000   7.4287774  22.4534662  12.9801249
   8.0650000  24.4610000  13.3590000   8.0690000  25.4200000  14.1310000
   5.6760000  23.6790000  13.1230000   5.2601352  24.3616465  13.8650963
   5.6760000  24.3900000  11.8040000   4.6531139  24.5279588  11.4608815
   6.1297997  25.3762749  11.9011698   6.2283242  23.8091049  11.0644740
   4.7730000  22.4830000  13.0480000   5.0164699  21.8956941  12.1620482
   3.7316596  22.8005127  13.0027268   4.9296511  21.8549181  13.9155676
   8.8870000  24.3220000  12.3130000   8.8482743  23.4799592  11.7481931
   9.7400000  25.4090000  11.8940000   9.6888787  26.2419021  12.5937960
   9.2590000  25.8660000  10.5310000   9.0260000  25.0580000   9.6320000
  11.1930000  25.0000000  11.7610000  11.2785522  24.1662733  11.0622688
  11.7423322  25.8472322  11.3485595  11.8600000  24.6210000  13.0620000
  11.2120000  24.5450000  14.1140000  13.1020000  24.3620000  13.0740000
   9.0790000  27.1820000  10.3620000   9.3469325  27.8073089  11.1161433
   8.7040000  27.7440000   9.0560000   8.1210176  27.0213224   8.4850873
  10.0010000  28.0590000   8.2970000  10.7920000  28.8660000   8.7500000
   7.8660000  29.0180000   9.2190000   8.4434556  29.7625720   9.7658468
   7.5310000  29.5840000   7.8530000   6.9705777  28.8510309   7.2719616
   6.9328179  30.4861155   7.9773959   8.4358089  29.8596868   7.3123295
   6.5990000  28.7300000   9.9930000   6.0086021  29.6409607  10.0755552
   6.8638162  28.3805546  10.9855642   6.0294501  27.9514506   9.4941963
  10.1750000  27.3700000   7.1720000   9.4693732  26.7003077   6.8796798
  11.4010000  27.5070000   6.3920000  12.1499489  28.1003392   6.9149759
  11.0900000  28.1400000   5.0440000  10.1190000  27.7660000   4.3720000
  11.9650000  26.0900000   6.1160000  11.1207234  25.4138869   5.9637061
  12.4865878  26.1106007   5.1584751  12.9080000  25.4230000   7.1220000
  13.0258107  24.3887791   6.7972783  14.2570000  26.0310000   7.1100000
  14.4094992  26.5179156   6.1556260  14.9953910  25.3112449   7.4603852
  14.2735146  26.8609136   7.8126673  12.3700000  25.3960000   8.5390000
  11.4045400  24.8937121   8.5513750  13.0629099  24.8556247   9.1848157
  12.2444900  26.4072427   8.9238932  11.9280000  29.0750000   4.6440000
  12.6529258  29.3789703   5.2912977  11.7780000  29.7670000   3.3490000
  10.9326328  29.3592212   2.7974699  13.0300000  29.5370000   2.5160000
  14.1310000  29.8070000   2.9710000  11.5020000  31.2420000   3.5800000
  10.5702463  31.3285629   4.1397697  12.2955568  31.6506817   4.2081161
  11.3990000  32.0830000   2.2840000  10.7909931  31.5489210   1.5516913
  12.3969344  32.2201587   1.8655806  10.7510000  33.4650000   2.5300000
   9.6919053  33.3173216   2.7535909  10.8273375  34.0864106   1.6369664
  11.3870000  34.0700000   3.6740000  11.0020853  33.8359872   4.5992488
  12.5300000  34.7550000   3.6700000  13.1340000  35.1050000   2.5250000
  12.6464959  34.9658934   1.6577362  14.0091616  35.5886335   2.5536119
  13.0640000  35.1030000   4.8130000  12.6423779  34.7192966   5.6776469
  13.9983673  35.4448622   4.8831554  12.8360000  29.0210000   1.3150000
  11.8845602  28.8645005   0.9963908  13.9420000  28.7040000   0.4050000
  14.7988770  28.3347192   0.9725756  14.3330000  29.9840000  -0.3140000
  13.5440000  30.5390000  -1.0930000  13.5350000  27.6450000  -0.5890000
  13.3360316  26.7089726  -0.0723901  14.3271433  27.4859275  -1.3157616
  12.6398715  27.9659060  -1.1207432  15.5390000  30.4640000  -0.0540000
  16.1792957  29.9384048   0.5330896  15.9740000  31.7200000  -0.6470000
  15.2252181  32.4669703  -0.3823357  15.9830000  31.7270000  -2.1740000
  15.5880000  32.7620000  -2.7580000  17.3090000  32.2040000  -0.0350000
  18.1011878  31.5060414  -0.3106320  17.5575663  33.1675657  -0.4833276
  17.2970000  32.3560000   1.4750000  17.0945828  31.3884298   1.9270198
  18.6600000  32.7750000   1.9330000  18.9169594  33.7462874   1.5118571
  19.3962671  32.0391732   1.6185603  18.6882078  32.8324937   3.0214925
  16.2360000  33.3200000   1.9690000  16.3097713  34.2557373   1.4168890
  15.2516666  32.8729293   1.8404717  16.3988509  33.5103497   3.0288033
  16.3580000  30.6250000  -2.8440000  16.3830000  30.6350000  -4.3110000
  17.0347561  31.4390402  -4.6552464  15.0140000  30.8000000  -4.9480000
  14.9050000  31.2700000  -6.0830000  17.0060000  29.2660000  -4.6740000
  16.2219224  28.5506531  -4.9280868  17.6851116  29.3671538  -5.5227620
  17.7200000  28.7920000  -3.4970000  17.7907509  27.7076465  -3.4547475
  18.7223397  29.2257923  -3.4979706  16.9490000  29.3820000  -2.3210000
  17.6335206  29.5710912  -1.4949042  16.1638641  28.6902210  -2.0179947
  13.9590000  30.3610000  -4.2750000  14.0713614  29.9733670  -3.3499325
  12.6310000  30.3330000  -4.8920000  12.6788447  30.6341111  -5.9378362
  11.6000000  31.2570000  -4.2390000  10.5310000  31.4860000  -4.8190000
  12.0780000  28.8880000  -4.8720000  11.1487617  28.8480194  -5.4416769
  11.8150000  28.5370000  -3.5160000  11.7803722  27.5530626  -3.5435502
  13.0770000  27.8790000  -5.4840000  12.5232320  27.1057417  -6.0109713
  13.7246219  28.3764307  -6.2058815  13.6843634  27.4168106  -4.7046824
  11.8830000  31.7080000  -3.0360000  12.7482132  31.4247965  -2.5910719
  10.9540000  32.5220000  -2.2960000  11.4903436  33.0028816  -1.4793641
  10.5506154  33.3011149  -2.9445450   9.7930000  31.7550000  -1.6980000
   8.8820000  32.3610000  -1.1530000   9.7850000  30.4330000  -1.7990000
  10.5681584  29.9686923  -2.2462996   8.6700000  29.6320000  -1.2920000
   7.7651232  30.2405770  -1.2509263   8.9530000  29.1320000   0.1280000
  10.1020000  28.8990000   0.4790000   8.4060000  28.4500000  -2.2420000
   7.6576856  27.7950535  -1.7902392   9.3314576  27.8823662  -2.3450473
   7.9200000  28.8490000  -3.6410000   8.6625245  29.4911977  -4.1161192
   6.9992098  29.4240724  -3.5285463   7.6640000  27.6800000  -4.5270000
   8.6155704  27.2389480  -4.8370809   7.1192292  26.9190181  -3.9648641
   6.8470000  28.0740000  -5.7520000   6.0022276  28.6860174  -5.4256132
   7.4794881  28.6888504  -6.3998556   6.3490000  26.8840000  -6.5080000
   5.8898718  26.2210955  -5.8989860   5.7698394  27.1265790  -7.2939830
   7.1613131  26.3624277  -6.8767173   7.8940000  29.0010000   0.9000000
   6.9806612  29.1918673   0.5231932   7.9980000  28.5770000   2.2890000
   9.0382160  28.4071793   2.5180799   7.2510000  27.2840000   2.5460000
   6.3340000  26.9190000   1.8030000   7.4550000  29.6530000   3.2480000
   7.5496420  29.2971417   4.2753201   6.3984839  29.8296147   3.0391057
   8.1600000  30.8620000   3.1310000   8.4094449  31.1591020   4.0144397
   7.5790000  26.6560000   3.6590000   8.3707458  27.0051013   4.1929056
   6.9520000  25.4150000   4.1120000   5.9123031  25.3916325   3.7825348
   6.9980000  25.3410000   5.6080000   8.0120000  25.6390000   6.2360000
   7.7130000  24.2240000   3.4810000   7.7487158  24.3625388   2.4002700
   8.7401890  24.2245188   3.8485549   7.0740000  22.8680000   3.7540000
   5.8580000  22.5270000   3.2090000   5.3614661  23.2191516   2.5431755
   7.6610000  21.9480000   4.6020000   8.6055878  22.1901956   5.0696362
   5.2900000  21.2880000   3.4380000   4.3553657  21.0125795   2.9737787
   7.0810000  20.7050000   4.8560000   7.5547494  19.9895049   5.5085544
   5.8780000  20.4050000   4.2900000   5.2780000  19.1610000   4.5430000
   5.8513569  18.4849729   4.9199085   5.9160000  24.8280000   6.1930000
   5.1669321  24.4978841   5.6056736   5.8110000  24.5840000   7.6170000
   6.4798402  25.2498016   8.1685435   6.2420000  23.1380000   7.8800000
   5.5150000  22.2050000   7.5600000   4.3920000  24.7910000   8.1070000
   3.6917656  24.2462425   7.4733078   4.3095193  24.3952339   9.1174091
   3.9980000  26.2690000   8.1390000   4.6580000  27.1020000   7.5870000
   2.9260000  26.5750000   8.8470000   2.6328412  27.5252897   8.7251048
   2.3119057  25.8281434   9.1309595   7.4540000  22.9800000   8.4000000
   8.0012572  23.8015939   8.6481161   8.0750000  21.6730000   8.5960000
   7.6590713  20.9796550   7.8646598   7.8480000  21.1140000  10.0000000
   8.2540000  21.7310000  10.9920000   9.5770000  21.8160000   8.3440000
   9.7203128  22.3188284   7.3857616   9.9962245  22.4698002   9.1116339
  10.3800000  20.5200000   8.3180000  10.2782297  20.0382983   9.2869706
   9.8720000  19.5290000   7.2760000   9.8386526  20.0121824   6.3038442
  10.5504229  18.6813433   7.2183825   8.8845814  19.1547527   7.5412999
  11.8600000  20.8370000   8.1370000  12.0345935  21.1852284   7.1197132
  12.4511249  19.9408037   8.3161925  12.1704342  21.6142784   8.8327296
   7.1710000  19.9680000  10.0630000   6.8006934  19.5648876   9.2142910
   6.9310000  19.2690000  11.3180000   6.6856804  19.9869894  12.1016907
   8.1860000  18.4950000  11.7280000   8.6520000  17.6360000  10.9670000
   5.7670000  18.3060000  11.1530000   5.6153790  17.7574391  12.0835012
   5.9989892  17.5837358  10.3673115   4.5570000  18.9860000  10.8190000
   4.2734921  19.5011616  11.5757331   8.6810000  18.7480000  12.9320000
   8.2161357  19.4285475  13.5292766   9.9410000  18.2080000  13.3970000
  10.2762394  17.4042185  12.7422119   9.8120000  17.6670000  14.8050000
   9.1730000  18.2940000  15.6730000  11.0380000  19.3260000  13.4260000
  10.6677593  20.1348057  14.0596490  11.2660000  19.9030000  12.0480000
  11.8553248  19.1984157  11.4602662  10.3234972  20.0603795  11.5342780
  12.3380000  18.8300000  14.0270000  12.2110573  18.7251327  15.1031634
  12.5932562  17.8677773  13.5888026  13.1563517  19.5245572  13.8706816
  11.9600000  21.2440000  12.0510000  11.2706080  21.9955771  12.4349233
  12.2384104  21.5103229  11.0353139  12.8633500  21.2428227  12.6547578
  10.4430000  16.5350000  15.0620000  10.9182185  16.0651296  14.2966742
  10.7120000  16.0650000  16.4110000  10.3256790  16.7887594  17.1228447
  12.2130000  16.0140000  16.5260000  12.8800000  15.4090000  15.6940000
  10.0440000  14.7210000  16.6720000  10.5326684  13.9603867  16.0617559
   9.0144362  14.8032394  16.3337323  10.0100000  14.2420000  18.1300000
  11.0354259  14.1393431  18.4726099   9.3420000  15.2060000  19.0530000
   9.2424837  14.7580755  20.0393023   8.3528384  15.4411445  18.6673023
   9.9505648  16.0878231  19.1559816   9.3640000  12.8710000  18.2240000
   9.8516433  12.2054086  17.5242424   9.4651274  12.4752572  19.2335819
   8.3068807  12.9413646  17.9677102  12.7670000  16.7110000  17.5330000
  12.1520366  17.2091522  18.1652328  14.2020000  16.8190000  17.7040000
  14.5167528  17.8466092  17.5311139  14.7141535  16.1841664  16.9862531
  14.6320000  16.4190000  19.0950000  13.8620000  16.4710000  20.0580000
  15.8940000  15.9990000  19.1740000  16.4385576  15.9688336  18.3144230
  16.5480000  15.6010000  20.4000000  15.9042801  15.8758704  21.2291672
  17.8580000  16.3590000  20.5490000  18.5920000  16.5750000  19.5860000
  16.7460000  14.0990000  20.4820000  15.7535595  13.6493986  20.4331182
  17.5360000  13.5350000  19.2940000  17.5861819  12.4542380  19.3830704
  18.5488250  13.9342703  19.2872265  17.0371575  13.7733813  18.3561537
  17.3480000  13.6510000  21.8090000  17.3647604  12.5616927  21.8438155
  16.7335805  14.0165146  22.6319602  18.3663637  14.0204349  21.9115170
  18.1240000  16.7510000  21.8020000  17.4371659  16.5537789  22.5233225
  19.2950000  17.5260000  22.1840000  19.9893058  17.5739442  21.3496385
  19.9670000  16.8590000  23.3790000  19.3060000  16.5200000  24.3450000
  18.9280000  18.9600000  22.5890000  18.3413032  18.9338795  23.5027049
  19.8481780  19.5007121  22.8155642  18.1600000  19.7240000  21.5570000
  16.7980000  19.4670000  21.3540000  16.2929653  18.7367311  21.9684222
  18.7670000  20.6840000  20.7510000  19.8193931  20.9027290  20.8603868
  16.0930000  20.1050000  20.3810000  15.0562218  19.8617399  20.2340684
  17.9990000  21.3620000  19.7500000  18.4578945  22.0880967  19.0948527
  16.6690000  21.0320000  19.6180000  16.0797902  21.5186149  18.8530620
  21.2630000  16.6800000  23.3090000  21.7483784  17.0024594  22.4775816
  22.0800000  16.1790000  24.4280000  21.4516111  15.8176374  25.2434045
  22.9240000  17.3280000  24.9140000  23.6170000  17.9930000  24.1310000
  22.9970000  15.0370000  23.9570000  23.6236450  14.6972614  24.7833303
  23.6435043  15.4089402  23.1611041  22.1760000  13.8520000  23.4210000
  21.7635115  13.3227548  24.2758253  21.3404708  14.2013924  22.8166994
  22.9580000  12.8770000  22.5480000  23.4350000  13.2230000  21.4690000
  23.0700000  11.6600000  22.9860000  22.7235211  11.3983998  23.8904340
  23.6753711  11.0282329  22.4604354  22.8470000  17.5870000  26.2090000
  22.2869610  16.9966093  26.8169194  23.6220000  18.6510000  26.8210000
  24.2444500  19.1175115  26.0675574  24.5410000  18.1230000  27.8970000
  24.1770000  17.2210000  28.6410000  22.7130000  19.7170000  27.4110000
  21.9700170  19.2653237  28.0723576  23.3325208  20.3652964  28.0326030
  22.0360000  20.5920000  26.3560000  22.7130311  20.6861122  25.5062031
  20.7340000  19.9310000  25.8270000  20.9339888  19.0060669  25.3023259
  20.2393604  20.6112398  25.1364898  20.0630298  19.7418943  26.6654002
  21.7660000  21.9930000  26.8020000  21.0939799  21.9686730  27.6593988
  21.2831373  22.5420017  25.9957462  22.6989023  22.4869835  27.0715218
  25.7320000  18.6970000  27.9150000  25.9379344  19.4178573  27.2303069
  26.7450000  18.4020000  28.9640000  26.2950891  17.8230020  29.7703848
  27.1670000  19.7660000  29.5060000  27.6490000  20.6090000  28.7680000
  27.9350000  17.5850000  28.3920000  28.3582889  18.1095493  27.5356571
  27.4720000  16.2680000  27.9920000  28.2350200  15.6861782  28.0091737
  29.0380000  17.3490000  29.4140000  29.3886189  18.2985858  29.8213996
  29.8855601  16.8657527  28.9284912  28.6685473  16.7244964  30.2287727
  26.9210000  20.0250000  30.7940000  26.5340859  19.3024354  31.3815284
  27.3460000  21.3060000  31.4060000  26.8995592  21.3708524  32.3978933
  26.8070000  22.5210000  30.6380000  27.4870000  23.5290000  30.4220000
  28.8730000  21.3210000  31.5990000  29.1940778  22.2999677  31.9565977
  29.3695319  21.1233751  30.6492867  29.2830000  20.2910000  32.6400000
  29.1263987  20.7301121  33.6285024  28.6182688  19.4263580  32.5812237
  30.7120000  19.7630000  32.5500000  31.5910000  20.4940000  32.0530000
  30.9690000  18.6060000  33.0090000  25.5640000  22.3940000  30.1800000
  25.0509840  21.5439557  30.3677624  24.8820000  23.4990000  29.5690000
  23.8155482  23.3002406  29.6551897  25.1046104  24.4193319  30.1098442
  25.1950000  23.7240000  28.0900000  24.7110000  24.6990000  27.5480000
  26.0150000  22.8670000  27.5020000  26.4369965  22.1285806  28.0596459
  26.4120000  23.0050000  26.0720000  25.8926602  23.8611551  25.6401699
  25.9250000  21.7980000  25.2900000  25.8990000  20.6820000  25.8020000
  27.8990000  23.2310000  25.9050000  28.4220151  22.3783969  26.3431089
  28.1449714  23.2608794  24.8447089  28.4390000  24.5380000  26.5930000
  29.5283289  24.4849417  26.6294532  28.0699902  24.6181945  27.6165353
  28.0320000  25.7640000  25.7740000  26.9426492  25.8350210  25.7623161
  28.3825793  25.6557625  24.7446936  28.5960000  27.0080000  26.3640000
  29.6833894  26.9784174  26.2439315  28.3777091  27.0137959  27.4369064
  28.0560000  28.2160000  25.7400000  28.5470364  29.0420675  26.0519371
  28.1602674  28.1686201  24.7221574  27.0686931  28.3124970  25.9327207
  25.6280000  22.0250000  24.0100000  25.6737227  22.9738966  23.6549735
  25.0730000  20.9660000  23.1600000  24.3577462  20.3886796  23.7470652
  26.1570000  20.0280000  22.6930000  27.1000000  20.4640000  22.0040000
  24.2910000  21.5820000  21.9540000  24.9791218  22.2142402  21.3914609
  23.1380000  22.4550000  22.4270000  23.5094838  23.1807167  23.1495615
  22.4062676  21.8381072  22.9511250  23.8100000  20.5080000  21.0330000
  24.6422598  19.9371561  20.6238596  23.1218173  19.8448958  21.5586800
  23.2986263  20.9502118  20.1803059  22.4270000  23.2510000  21.3810000
  21.8619117  22.5867443  20.7290141  23.1559359  23.8021149  20.7850409
  21.7356263  23.9548109  21.8450612  26.0370000  18.7310000  23.0300000
  25.2692187  18.4538369  23.6342542  26.9090000  17.6770000  22.5430000
  27.8242342  18.1091138  22.1400226  26.2850000  16.8660000  21.4370000
  26.9490000  16.0930000  20.7810000  27.3230000  16.7500000  23.6440000
  28.0686205  16.0460031  23.2718574  26.1960000  16.0550000  24.1290000
  26.3715666  15.8653652  25.0555064  27.8820000  17.4910000  24.8550000
  28.4774691  18.3405563  24.5201619  28.5314944  16.8155804  25.4112377
  27.0748422  17.8503173  25.4948768  24.9790000  17.0470000  21.2060000
  24.4387608  17.6307333  21.8293233  24.3250000  16.4120000  20.0640000
  24.1528794  15.3575795  20.2720778  24.9587261  16.4910709  19.1850070
  22.9920000  17.0970000  19.8150000  22.2600000  17.4340000  20.7410000
  22.6490000  17.2510000  18.5290000  23.3411707  17.0573750  17.8125319
  21.3440000  17.7830000  18.1200000  20.6059058  17.6291610  18.9033191
  20.9250000  17.0430000  16.8740000  21.6360000  17.0990000  15.8620000
  21.4580000  19.2760000  17.8470000  21.6735588  19.7846240  18.7864873
  22.3004394  19.4531023  17.1764265  20.2200000  19.9130000  17.2520000
  18.9190000  19.4610000  17.3090000  18.5735109  18.5750692  17.8280708
  20.1940000  21.1230000  16.4620000  18.1050000  20.3190000  16.6210000
  17.1361422  20.1060025  16.3758330  18.8440000  21.3440000  16.0870000
  21.1560000  22.0170000  16.0340000  22.1876552  21.7974591  16.2394800
  18.4750000  22.4300000  15.2950000  17.4458831  22.5733362  14.9952332
  20.7910000  23.0620000  15.2380000  21.5514026  23.7318242  14.8637731
  19.4750000  23.2830000  14.8950000  19.2254742  24.1256390  14.2643317
  19.8140000  16.3050000  16.9500000  19.2867275  16.3060384  17.8201532
  19.2930000  15.5440000  15.8140000  19.8362904  15.8237719  14.9239076
  17.8340000  15.9000000  15.6030000  17.0010000  15.7230000  16.5170000
  19.4720000  14.0540000  16.0190000  18.9774935  13.7689202  16.9447384
  18.9799993  13.5162715  15.2078315  20.9440000  13.6350000  16.0690000
  21.3906618  13.7907739  15.0906437  21.4833675  14.2653070  16.7740866
  21.1590000  12.1920000  16.4790000  22.2225615  11.9583619  16.4161113
  20.6435803  11.5473171  15.7629320  20.6590000  11.8930000  17.8160000
  19.8011438  11.3392677  17.8797611  21.2630000  12.1890000  18.9440000
  22.4200000  12.8520000  18.9460000  22.8431442  13.1007465  18.0720541
  22.8970019  13.0338479  19.8242358  20.6950000  11.8290000  20.0880000
  21.1604974  12.0052243  20.9531800  19.8249559  11.2834472  20.0459590
  17.4970000  16.3680000  14.4110000  18.2220968  16.4394601  13.7060304
  16.1290000  16.7040000  14.0330000  15.4707270  16.6665655  14.9018040
  15.6160000  15.6860000  13.0190000  16.2700000  15.4040000  12.0110000
  16.0440000  18.1100000  13.4310000  15.1525259  18.1637940  12.8038885
  16.9062259  18.2774895  12.7826165  15.9390000  19.2400000  14.4500000
  15.5780000  18.9980000  15.6140000  16.1900000  20.3980000  14.0450000
  14.4330000  15.1560000  13.3190000  13.9605638  15.4351601  14.1738473
  13.7820000  14.1290000  12.4910000  14.4673850  13.7624799  11.7262827
  12.5540000  14.7410000  11.8190000  11.6950000  15.3630000  12.4580000
  13.3540000  12.9360000  13.3800000  12.6991913  12.2911128  12.7945580
  12.7497215  13.3076081  14.2070313  14.4770000  12.0900000  13.9440000
  15.2930000  12.5440000  14.9630000  15.1423349  13.5378755  15.3638746
  14.6770000  10.8040000  13.4820000  14.0397160  10.4067466  12.7017795
  16.2730000  11.7430000  15.5100000  16.8941335  12.1062729  16.3156731
  15.6580000   9.9860000  14.0290000  15.7982435   8.9774083  13.6860581
  16.4510000  10.4750000  15.0460000  17.4080000   9.6180000  15.5560000
  17.7920710   9.9639570  16.3936458  12.4730000  14.4980000  10.5150000
  13.2022469  13.9785182  10.0450309  11.3980000  15.0330000   9.6610000
  10.4245076  14.7728830  10.0781997  11.5260000  14.4000000   8.2920000
  12.4920000  13.6820000   7.9670000  11.5030000  16.5750000   9.5460000
  10.6824700  16.9466393   8.9315449  11.3644260  17.0225061  10.5288983
  12.8130000  17.0570000   8.9760000  12.9570000  17.2180000   7.6120000
  12.1276594  16.9995289   6.9574052  13.8860000  17.3630000   9.7810000
  13.7971226  17.2652842  10.8535881  14.1370000  17.6630000   7.0640000
  14.2088680  17.7961423   5.9976346  15.0870000  17.7840000   9.2330000
  15.9119927  18.0234157   9.8889301  15.2040000  17.9580000   7.8710000
  16.1196683  18.3360497   7.4417456  10.5180000  14.6640000   7.4660000
   9.7540162  15.2511248   7.7624218  10.4930000  14.1830000   6.0690000
  11.1083679  13.2889771   5.9789997  11.0380000  15.2330000   5.1260000
  10.5250000  16.3580000   5.0720000   9.0590000  13.8030000   5.6510000
   8.6515719  13.1214591   6.3820367   8.4406312  14.6999295   5.6596246
   9.0500000  13.2030000   4.3000000   9.5090000  12.0570000   4.2030000
   8.6610000  13.8450000   3.3090000  12.1060000  14.9210000   4.4060000
  12.5084240  13.9823446   4.4789283  12.7240000  15.8960000   3.5260000
  12.7268761  16.8539454   4.0488138  11.9700000  16.1020000   2.2270000
  11.8990000  17.2300000   1.7310000  14.1800000  15.4840000   3.2350000
  14.1781988  14.5274705   2.7095982  14.6713890  15.3213953   4.1896858
  15.0090000  16.4750000   2.4630000  14.5379305  16.6325020   1.4963315
  15.1250000  17.8280000   3.1590000  15.8798213  18.4202094   2.6597183
  15.4602815  17.6740217   4.1772491  14.2010141  18.3705660   3.1182475
  16.4060000  15.8790000   2.1760000  16.3280202  14.8849704   1.7437063
  16.9504476  16.5332981   1.4930663  16.9611278  15.8133422   3.1103374
  11.4350000  15.0470000   1.6260000  11.3901102  14.1727507   2.1384189
  10.8620000  15.1710000   0.2980000  11.6088255  15.6001564  -0.3719524
   9.7010000  16.1290000   0.2520000   9.5480000  16.8830000  -0.6950000
  10.4570000  13.7990000  -0.2330000   9.8491807  13.3104024   0.5318162
  11.3587595  13.2031130  -0.3772379   9.6810000  13.8400000  -1.5220000
  10.2550859  14.3955174  -2.2658533   8.7394663  14.3711592  -1.3716752
   9.3340000  12.5070000  -2.0950000   8.7070574  12.6655786  -2.9762763
  10.2670247  12.0372932  -2.4095585   8.6470000  11.6750000  -1.1410000
   8.2905732  12.1075911  -0.3004656   8.5980000  10.3880000  -1.2440000
   9.0600000   9.7820000  -2.3280000   9.5045050  10.2899390  -3.0643667
   9.0130887   8.7546567  -2.3564302   8.0770000   9.6830000  -0.2690000
   7.8174367  10.1063667   0.6035817   7.9166897   8.6753091  -0.3901787
   8.7950000  16.0600000   1.2440000   8.8916622  15.3657664   1.9887425
   7.6210000  16.9360000   1.2580000   7.0059955  16.7715686   0.3718594
   8.0650000  18.4150000   1.2660000   7.4610000  19.2520000   0.6300000
   6.7820000  16.6750000   2.5200000   7.4568317  16.7772672   3.3717793
   6.0746925  17.5015283   2.5897017   5.9680000  15.4330000   2.7300000
   6.5515137  14.5338638   2.5744991   5.2072009  15.4111265   1.9448675
   5.2690000  15.4140000   4.1090000   6.0200000  15.4360000   5.1040000
   4.0000000  15.3920000   4.1620000   9.0840000  18.6990000   2.0220000
   9.5261804  17.9514719   2.5405152   9.6370000  20.0510000   2.0940000
   8.8455171  20.7524014   2.3592792  10.1970000  20.4540000   0.7120000
   9.8830000  21.5190000   0.1700000  10.6990000  20.0250000   3.1830000
  10.2042310  19.7955191   4.1248404  11.3904824  19.2113148   2.9871940
  11.4930000  21.2360000   3.3690000  11.0680000  22.4970000   3.0480000
  10.1152741  22.6512933   2.5637520  12.6970000  21.0990000   4.0540000
  13.0256063  20.1219391   4.3792654  11.8740000  23.5880000   3.2950000
  11.5447152  24.5770853   3.0103320  13.4780000  22.1920000   4.3200000
  14.4135985  22.0710554   4.8480365  13.0800000  23.4200000   3.9280000
  13.6999478  24.2785766   4.1369298  11.0360000  19.6010000   0.1420000
  11.2647393  18.7365698   0.6221310  11.6290000  19.8730000  -1.1530000
  12.2806730  20.7460039  -1.0931230  10.6090000  20.1470000  -2.2090000
  10.8160000  21.0510000  -3.0530000  12.4470000  18.6700000  -1.6060000
  11.8441530  17.7650989  -1.5313702  12.6789988  18.8299543  -2.6614184
  13.7070000  18.4640000  -0.8960000  13.5516819  18.3020066   0.1669849
  14.2120367  19.3396022  -1.0974238  14.5560000  17.3410000  -1.5150000
  14.1810000  16.8580000  -2.5610000  15.6060000  17.0020000  -0.9650000
   9.5580000  19.3590000  -2.2270000   9.4892674  18.6018052  -1.5525756
   8.4980000  19.5160000  -3.2320000   8.9530651  19.5719163  -4.2223120
   7.7540000  20.8070000  -3.0460000   7.3310000  21.4320000  -4.0210000
   7.5320000  18.3180000  -3.2150000   7.1813043  18.1526457  -2.1948169
   6.6715481  18.5408959  -3.8482215   8.2090000  17.0660000  -3.7400000
   8.5348119  17.2704617  -4.7633498   9.1113649  16.8590905  -3.1653894
   7.3550000  15.8170000  -3.7530000   6.2810000  15.7770000  -3.1250000
   7.8220000  14.8540000  -4.3720000   7.5690000  21.2270000  -1.8180000
   7.9025431  20.6684938  -1.0399066   6.8150000  22.4570000  -1.5600000
   5.9014045  22.4501896  -2.1565938   7.6140000  23.6920000  -1.9530000
   7.0260000  24.7130000  -2.3810000   6.4510000  22.5530000  -0.1400000
   5.9215304  23.4887955   0.0428787   5.8116731  21.7116288   0.1290316
   7.3485004  22.5221224   0.4783974   8.9320000  23.6500000  -1.8480000
   9.3680647  22.8004666  -1.5022594   9.7510000  24.8610000  -2.0750000
   9.0860398  25.7093070  -2.1957984  10.5840000  24.8520000  -3.3580000
  11.2950000  25.8290000  -3.6150000  10.6400000  25.2120000  -0.8500000
  11.0971580  26.1819869  -1.0354392   9.8120000  25.3670000   0.4300000
  10.4412679  25.7724309   1.2211456   8.9826094  26.0507802   0.2488883
   9.4263709  24.3933053   0.7332607  11.7590000  24.1880000  -0.7060000
  12.4591968  24.2858052  -1.5340760  12.2978429  24.3607315   0.2244982
  11.3690579  23.1771032  -0.7003507  10.4920000  23.7880000  -4.1670000
   9.8820845  23.0207783  -3.9064570  11.1840000  23.6900000  -5.4520000
  10.9586632  22.7002490  -5.8523751  12.6790000  23.7610000  -5.3700000
  13.3370000  24.4360000  -6.1620000  10.6750000  24.7190000  -6.4770000
  10.8092223  25.7317003  -6.1031744  11.2342656  24.6207990  -7.4089945
   9.2380000  24.5310000  -6.8310000   8.6990000  23.4290000  -6.6470000
   8.5690000  25.4690000  -7.3320000  13.2380000  23.0320000  -4.4300000
  12.6600216  22.4695199  -3.8138128  14.6640000  22.9500000  -4.3710000
  15.1078032  23.1843646  -5.3352119  15.0960000  21.5530000  -3.9090000
  14.6210000  21.1330000  -2.8210000  15.0230000  23.9760000  -3.3460000
  14.5493450  24.9198859  -3.6306438  14.5824742  23.6748850  -2.3923950
  16.4800000  24.2770000  -3.1140000  17.0059245  23.3617156  -2.8441821
  17.1530000  24.8660000  -4.3530000  18.2349760  24.8479894  -4.2179274
  16.9031243  24.3094808  -5.2495316  16.8120008  25.8912774  -4.4958823
  16.5480000  25.2370000  -1.9830000  17.4446294  25.8515430  -2.0624835
  15.6780760  25.8873765  -1.9606600  16.6025877  24.6870571  -1.0462257
  15.9960000  20.9000000  -4.6640000  16.4300000  19.5570000  -4.2940000
  15.5829802  18.9216528  -4.0263917  17.4490000  19.5720000  -3.2160000
  18.6490000  19.6980000  -3.4020000  17.0830000  19.0450000  -5.5700000
  16.3088709  18.7403974  -6.2771012  17.7605033  18.2079224  -5.3887917
  17.8170000  20.2480000  -6.1100000  18.7443449  20.4811079  -5.5930194
  18.0258473  20.1268379  -7.1735042  16.7470000  21.3440000  -5.8810000
  17.2425141  22.2971363  -5.7217434  16.0703830  21.3971158  -6.7354042
  16.9900000  19.2070000  -2.0590000  16.0149707  18.9598401  -1.9762061
  17.7310000  19.3930000  -0.8580000  18.3213194  20.3035568  -0.9455162
  18.7560000  18.3410000  -0.5290000  19.4100000  18.4400000   0.4880000
  16.7150000  19.5500000   0.2850000  17.2603256  19.6918723   1.2179905
  16.1132673  18.6730339   0.4304012  15.7700000  20.7480000   0.0820000
  15.3133113  20.7857609  -0.8366055  14.7640000  20.9250000   1.1890000
  15.2764321  21.0549077   2.1411436  14.1047058  20.0710786   1.2545751
  14.1390953  21.7911603   0.9861490  16.5910000  21.9500000   0.0530000
  15.9479288  22.8282628   0.0777417  17.1566257  22.0100804  -0.8743797
  17.2714145  21.9837124   0.9042148  18.8880000  17.3180000  -1.3330000
  18.2745156  17.2845147  -2.1346657  20.0290000  16.3680000  -1.2270000
  20.4267527  16.3453781  -0.2115073  21.1840000  16.7380000  -2.1460000
  22.1710000  16.0020000  -2.2130000  19.5870000  14.9720000  -1.6450000
  19.2577719  14.9978423  -2.6857369  20.4262626  14.2785847  -1.5635600
  18.4820000  14.4740000  -0.7710000  18.8275256  14.4587744   0.2637210
  17.6109734  15.1270962  -0.8306318  18.0400000  13.0060000  -1.1740000
  18.9253821  12.3656491  -1.1919661  17.3479496  12.6300388  -0.4177105
  17.3970000  13.0260000  -2.4690000  17.2520613  13.9235997  -2.9034696
  17.0360000  11.9520000  -3.1280000  17.1930000  10.7770000  -2.5580000
  17.6419479  10.6945093  -1.6674472  16.8736319   9.8956270  -2.9874133
  16.4960000  12.0770000  -4.3240000  16.4836783  12.9568333  -4.8051719
  16.2209089  11.2204721  -4.7896960  21.0380000  17.8100000  -2.9270000
  20.1436273  18.2784017  -2.9677346  22.0760000  18.3080000  -3.8230000
  23.0194204  17.7842059  -3.6848067  22.2234179  19.3746934  -3.6762382
  21.6470000  18.1040000  -5.2490000  22.2250000  18.6250000  -6.2120000
  20.6340000  17.4130000  -5.4040000  23.4450000  -5.9600000  12.6640000
  24.1468703  -5.2366771  12.4997179  23.8153899  -6.8319076  12.3104584
  23.3427328  -6.0167718  13.6674499  22.1790000  -5.5980000  11.9900000
  22.3673965  -5.5748010  10.9146528  21.8180000  -4.1610000  12.3440000
  21.8280000  -3.3850000  11.4410000  21.1090000  -6.6280000  12.2330000
  21.1609387  -6.8128226  13.2991031  21.4640337  -7.5474926  11.7617557
  19.7570000  -6.3750000  11.6720000  19.7703192  -5.5721831  10.9321475
  19.3925904  -7.2830827  11.1868924  18.8500000  -6.0420000  12.7960000
  17.8352842  -6.0901967  12.4067286  19.1067391  -5.0529938  13.0483204
  18.9050000  -7.0230000  13.9520000  19.7216607  -7.7431646  13.8870625
  18.0081109  -7.6462155  13.8545337  18.8660000  -6.3530000  15.2850000
  19.7599589  -6.3751963  15.7594585  18.5595472  -5.3889155  15.2092870
  18.2004418  -6.8220068  15.8912577  21.5330000  -3.8020000  13.5960000
  21.6766829  -4.4363737  14.3633733  21.4100000  -2.3770000  13.9740000
  21.2537301  -1.7489046  13.0964549  22.6900000  -1.9380000  14.6480000
  23.0380000  -2.4230000  15.7240000  20.2280000  -2.1400000  14.9440000
  20.3682496  -2.7400810  15.8460070  18.9190000  -2.5700000  14.2670000
  19.0096845  -3.6169041  14.2045435  18.7815949  -2.0990958  13.2923270
  20.2110000  -0.6630000  15.3500000  21.0935675  -0.4108387  15.9411322
  20.1585290  -0.0152895  14.4754801  19.3599602  -0.4603989  15.9966576
  17.6660000  -2.4440000  15.1310000  17.8454269  -2.8994434  16.1034822
  17.3977903  -1.3958732  15.2605479  16.8295163  -2.9574289  14.6601469
  23.4060000  -1.0010000  14.0910000  23.1657045  -0.5197724  13.2430547
  24.5670000  -0.6410000  14.8930000  24.8275902  -1.4015837  15.6198716
  24.3370000   0.5720000  15.7970000  23.4330000   1.4360000  15.6050000
  25.8830000  -0.5840000  14.1270000  25.7210202  -0.7502327  13.0602866
  26.3115556   0.4138721  14.2336002  26.8890000  -1.5990000  14.6750000
  27.8824775  -1.2595436  14.3720527  26.8891713  -1.6031456  15.7686647
  26.6840000  -3.0040000  14.1260000  25.5540000  -3.3290000  13.6790000
  27.6540000  -3.7960000  14.1470000  25.1640000   0.5690000  16.8180000
  25.8684303  -0.1498104  16.8722781  25.1200000   1.5660000  17.8690000
  24.0905157   1.6899018  18.2013429  25.6960000   2.8410000  17.3700000
  26.8370000   2.8840000  16.9250000  25.9890000   1.0830000  19.0330000
  26.1230201   1.9038185  19.7406481  26.9780601   0.8040864  18.6639676
  25.4050000  -0.0760000  19.7560000  25.3063639  -0.9295732  19.0841267
  26.0777069  -0.3667858  20.5624039  24.0660000   0.2710000  20.3660000
  23.9400000   1.2870000  21.0770000  23.0670000  -0.5680000  20.1140000
  22.1636780  -0.4510498  20.5768648  23.1343747  -1.3471397  19.4871481
  24.9300000   3.9190000  17.4310000  25.4570000   5.1750000  16.9090000
  25.8316149   5.0351251  15.8941178  26.5510000   5.8100000  17.7790000
  26.5540000   5.6510000  18.9970000  24.2440000   6.0700000  16.8820000
  23.7468939   5.9732303  15.9146206  24.5049339   7.1095820  17.0685639
  23.4340000   5.5570000  17.8650000  23.7171772   6.0043510  18.8179659
  22.3898529   5.8070907  17.6763857  23.5870000   4.0690000  17.9720000
  22.8642467   3.5597496  17.3327044  23.5133458   3.7366418  19.0089887
  27.4270000   6.5970000  17.1560000  27.3912012   6.6413225  16.1489952
  28.4720000   7.2860000  17.8680000  29.0691767   6.5557086  18.4211386
  27.9340000   8.2300000  18.9170000  28.6370000   8.5240000  19.8750000
  29.3780000   8.0410000  16.8860000  30.0502152   8.6968794  17.4430986
  28.7540576   8.6608156  16.2497109  30.2150000   7.1040000  16.0280000
  29.5991511   6.2736885  15.6801865  31.0280820   6.6904208  16.6267620
  30.7730000   7.7870000  14.8130000  29.9377723   8.1981403  14.2404050
  31.2552308   7.0246848  14.1961490  31.7440000   8.8400000  15.0950000
  32.1032931   8.9247301  16.0324525  32.1930000   9.6980000  14.1630000
  31.8010000   9.6020000  12.8980000  32.0526054  10.3049218  12.2255373
  31.2667731   8.7975879  12.6240104  33.0940000  10.6040000  14.4920000
  33.4517503  10.6534325  15.4295543  33.3501856  11.3010402  13.8185564
  26.7170000   8.7570000  18.7070000  26.2014747   8.4335801  17.9062817
  26.0630000   9.7080000  19.5700000  26.8231385  10.2921308  20.0939757
  25.2180000   9.1000000  20.6530000  24.5750000   9.7990000  21.3990000
  25.2100000  10.6900000  18.7370000  24.5724507  11.2828772  19.3912126
  25.8971687  11.3948668  18.2690878  24.3750000  10.0800000  17.6500000
  24.6510000  10.1290000  16.3630000  25.4939913  10.6510805  15.9384099
  23.1210000   9.3880000  17.7720000  23.6810000   9.5180000  15.6340000
  23.6302422   9.5125667  14.6213722  22.7070000   9.0700000  16.4930000
  22.3090000   9.0350000  18.8450000  22.6093594   9.2920604  19.8456721
  21.5080000   8.4250000  16.2320000  21.1966806   8.2028215  15.2221723
  21.1350000   8.3870000  18.6250000  20.4949908   8.1142482  19.4532412
  20.7330000   8.0630000  17.3030000  19.7886927   7.5612206  17.1369351
  25.1720000   7.7980000  20.7340000  25.7581070   7.2076226  20.1576083
  24.4300000   7.1910000  21.8560000  23.3687334   7.4082830  21.7282839
  24.8740000   7.7170000  23.2210000  26.0650000   7.8060000  23.5170000
  24.6060000   5.6530000  21.8510000  24.2525110   5.2351642  20.9106044
  25.6585271   5.3956529  21.9779032  24.0341831   5.2151360  22.6709995
  23.9060000   7.9600000  24.0890000  22.9447367   7.7963339  23.8119859
  24.1860000   8.3960000  25.4430000  24.7725645   9.3140959  25.4153892
  24.9410000   7.3340000  26.2260000  24.7020000   6.1320000  26.0550000
  22.8700000   8.6600000  26.1620000  22.3501305   9.4848073  25.6697712
  22.2391493   7.7693493  26.1115470  23.1040000   8.9950000  27.5280000
  22.2584378   9.0994288  27.9777478  25.8350000   7.7840000  27.1020000
  25.9445543   8.7805686  27.2083215  26.5180000   6.8730000  28.0230000
  26.5062269   5.8627040  27.6089651  25.8160000   6.7710000  29.3720000
  26.3060000   6.1740000  30.3010000  27.9830000   7.2830000  28.2200000
  28.0219994   8.2357034  28.7520953  28.4720828   6.5333129  28.8452386
  28.7560000   7.4170000  26.9090000  28.6530276   6.4867524  26.3472056
  28.3379390   8.2289710  26.3121938  30.2320000   7.6930000  27.1360000
  30.6272341   6.9149977  27.7921816  30.3520595   8.6587997  27.6303843
  31.0240000   7.6830000  25.8180000  30.7857704   8.6013626  25.2698256
  30.6495410   6.8540788  25.2077144  32.5180000   7.5500000  25.9760000
  32.9631414   7.5554000  25.0656377  32.7509195   6.6879123  26.4512450
  32.8822047   8.3309036  26.5073107  24.6440000   7.3520000  29.5090000
  24.2263453   7.8265789  28.7201512  23.8680000   7.2590000  30.7680000
  24.5214091   7.1115248  31.6291994  22.9350000   6.0510000  30.6240000
  22.0010000   6.0230000  29.7970000  23.1180000   8.6040000  30.9630000
  23.8560831   9.4065778  31.0115696  22.4740590   8.7905437  30.1035745
  22.2530000   8.6560000  32.2270000  21.8090000   7.5990000  32.7420000
  21.9620000   9.7680000  32.7320000  23.1160000   5.0260000  31.4560000
  23.8326045   5.0842057  32.1622009  22.2560000   3.8390000  31.3490000
  22.3766721   3.4222418  30.3476978  20.7610000   4.1240000  31.4930000
  19.9210000   3.4370000  30.8650000  22.6830000   2.7710000  32.3450000
  23.0188496   3.2329854  33.2747182  21.8327229   2.1239273  32.5689226
  23.7160000   1.9570000  31.7900000  24.4628365   2.5161324  31.5531567
  20.4200000   5.1050000  32.3220000  21.1163966   5.7578593  32.6807554
  19.0300000   5.4210000  32.5260000  18.4883840   4.5044786  32.7650917
  18.4110000   5.9890000  31.2410000  17.2170000   5.8980000  31.0790000
  18.8680000   6.3730000  33.6960000  19.3086343   7.3411511  33.4557813
  17.8065228   6.5161837  33.9031625  19.3558976   5.9673082  34.5813142
  19.2120000   6.6310000  30.3850000  20.2022967   6.6961558  30.5917508
  18.7140000   7.1360000  29.1030000  17.8113020   7.6786177  29.1785648
  18.3040000   6.0150000  28.1990000  17.4690000   6.3100000  27.3860000
  19.7240000   7.9850000  28.3970000  19.6502029   7.8562294  27.3153188
  20.7349515   7.7275639  28.6924645  19.5800189   9.0354617  28.5862382
  18.8990000   4.8130000  28.2750000  19.6010925   4.6595332  28.9884217
  18.4770000   3.6890000  27.4510000  18.0055859   4.0492998  26.5368967
  19.3606612   3.1211380  27.1614472  17.5120000   2.7300000  28.1140000
  17.1340000   1.7340000  27.5080000  17.1130000   2.9940000  29.3490000
  17.3903846   3.8580909  29.7956893  16.2090000   2.0950000  30.0810000
  15.9693433   1.2216600  29.4742651  14.9050000   2.8030000  30.4110000
  14.9000000   3.9560000  30.6550000  16.8580000   1.5920000  31.3840000
  16.1911836   0.8971296  31.8937706  17.7960708   1.0874832  31.1499298
  17.0664772   2.4414071  32.0371019  13.8080000   2.0850000  30.4380000
  13.8562813   1.1065670  30.2123691  12.5450000   2.6460000  30.9230000
  12.3344907   3.5669156  30.3726549  12.6800000   2.9930000  32.4050000
  13.1130000   2.1720000  33.2200000  11.4430000   1.7090000  30.7070000
  10.5396875   2.1238025  31.1439806  11.2696834   1.5823832  29.6397431
  11.6634538   0.7460334  31.1665643  12.2820000   4.1950000  32.7720000
  12.0811411   4.8866261  32.0413781  12.5160000   4.6820000  34.1070000
  12.9819582   3.9231819  34.7331002  11.2290000   5.0930000  34.8020000
  11.2820000   5.6470000  35.9190000  13.5080000   5.8600000  34.0500000
  13.7580369   6.1687753  35.0659366  13.0412478   6.7050437  33.5391018
  14.7230000   5.5090000  33.3600000  14.5600268   5.4193632  32.4169680
  10.0900000   4.8870000  34.1310000  10.1531039   4.5963733  33.1643537
   8.7700000   5.1430000  34.6650000   8.8265976   5.1437743  35.7515835
   7.8210000   4.0500000  34.1990000   8.0590000   3.3850000  33.2030000
   8.1460000   6.4970000  34.2220000   7.2652607   6.7087571  34.8271863
   7.7460000   6.3900000  32.8460000   7.9147138   7.2533386  32.4434262
   9.1090000   7.6650000  34.3410000   9.9453623   7.5532426  33.6483655
   8.5876863   8.5949709  34.1120653   9.4962128   7.7224179  35.3581329
   6.6790000   3.8730000  34.8530000   5.6930000   2.9230000  34.3720000
   6.1120160   1.9175891  34.4196903   5.2510000   3.2020000  32.9220000
   5.1250000   2.2290000  32.1690000   4.5660000   3.0460000  35.4160000
   3.8539227   3.8107281  35.0988866   4.0431554   2.0983062  35.5521840
   5.2380000   3.5030000  36.6960000   4.5485451   4.0395485  37.3490954
   5.6659127   2.6422644  37.2121961   6.3400000   4.3920000  36.1930000
   7.1873950   4.3508151  36.8777333   5.9702020   5.4147982  36.1072029
   4.9850000   4.4500000  32.5320000   5.0189561   5.2222463  33.1767311
   4.6110000   4.6980000  31.1260000   3.7536165   4.0745505  30.8635902
   5.7330000   4.3440000  30.1510000   5.4700000   3.8190000  29.0340000
   4.2410000   6.1470000  30.8990000   4.2719843   6.3558854  29.8278783
   4.9822602   6.7891028  31.3795479   2.8740000   6.5230000  31.3740000
   2.0770000   5.6590000  31.7950000   2.4810000   7.7270000  31.3100000
   6.9630000   4.6510000  30.5120000   7.1306113   5.1238951  31.3942745
   8.0840000   4.2700000  29.6540000   7.9030227   4.6647087  28.6531695
   8.1940000   2.7620000  29.5010000   8.4810000   2.2440000  28.4490000
   9.3930000   4.8660000  30.1540000  10.2089636   4.4448250  29.5667021
   9.5371879   4.5712425  31.1944375   9.4470000   6.3690000  30.0480000
   8.5793470   6.8185001  30.5290005   9.3932279   6.6353519  28.9916929
  10.7140000   6.9580000  30.6320000  11.6820000   6.1930000  30.8630000
  10.7510000   8.1810000  30.8190000   7.9120000   2.0360000  30.5970000
   7.6223720   2.5107570  31.4472333   7.9340000   0.5820000  30.5240000
   8.8924631   0.2689717  30.1088032   6.9050000   0.0310000  29.5220000
   7.1630000  -0.9040000  28.7740000   7.7900000  -0.0670000  31.9080000
   7.5604556  -1.1269968  31.7756056   6.9599785   0.3908729  32.4461107
   9.0880000   0.0460000  32.7450000   9.3453694   1.0983415  32.8460547
   9.8977406  -0.4426287  32.2014788   8.9830000  -0.5830000  34.1310000
   8.1533831  -0.1213526  34.6696714   8.7564429  -1.6457610  34.0181196
  10.2640000  -0.4350000  34.9480000  10.1282157  -0.9555588  35.9014967
  11.0815896  -0.9318826  34.4150847  10.5990000   1.0000000  35.1860000
  11.4176655   1.0769364  35.7780469   9.8270622   1.4905854  35.6136318
  10.8388967   1.4502495  34.3083582   5.7090000   0.5900000  29.5250000
   5.5027962   1.3095255  30.2078848   4.6780000   0.1710000  28.5750000
   4.5231490  -0.9076928  28.6666785   5.1260000   0.4470000  27.1510000
   4.9470000  -0.3780000  26.2590000   3.3630000   0.8670000  28.8130000
   3.5343250   1.9427721  28.8801184   2.7620000   0.3690000  30.1290000
   3.5165661   0.3712809  30.9152036   2.4139339  -0.6587354  30.0111921
   2.3750000   0.5990000  27.6930000   2.6995100   1.0858448  26.7744290
   2.2928489  -0.4763271  27.5281479   1.3833576   0.9918217  27.8956105
   1.6580000   1.2240000  30.5890000   1.2261976   0.7807265  31.4868051
   0.8613088   1.3226567  29.8636232   2.0398857   2.2138730  30.8436901
   5.7180000   1.6240000  26.9150000   5.8081375   2.2990201  27.6700842
   6.1720000   1.9660000  25.5550000   5.3283930   1.8611366  24.8723237
   7.2200000   0.9570000  25.0900000   7.1630000   0.5220000  23.9310000
   6.6590000   3.4080000  25.4840000   7.3664978   3.5985770  26.2912028
   7.3350000   3.7380000  24.1770000   7.6410086   4.7844542  24.1683056
   8.2251154   3.1226992  24.0413261   6.6426126   3.5626439  23.3519897
   5.4930000   4.3260000  25.6230000   5.8135468   5.3602115  25.5189831
   5.0329226   4.2124882  26.6021254   4.7512715   4.1161348  24.8525304
   8.1540000   0.5560000  25.9400000   8.1772383   0.9284514  26.8841235
   9.1200000  -0.4550000  25.5210000   9.4994255  -0.1780178  24.5386566
   8.4910000  -1.8260000  25.2920000   8.9180000  -2.5600000  24.4090000
  10.3090000  -0.5260000  26.4760000   9.9388715  -0.7158623  27.4850519
  10.9123003  -1.3893997  26.1868952  11.2280000   0.6950000  26.5040000
  10.6951308   1.5075762  26.9923018  12.5030000   0.4020000  27.3200000
  12.2330548  -0.0525852  28.2710754  13.1454416  -0.2887215  26.7726396
  13.0423448   1.3316976  27.5015076  11.6420000   1.1560000  25.1370000
  10.7895108   1.5819108  24.6092772  12.4002909   1.9329687  25.2329795
  12.0546122   0.3183552  24.5733634   7.4710000  -2.1700000  26.0750000
   7.1971156  -1.5945168  26.8648831   6.7550000  -3.3970000  25.7930000
   7.4514396  -4.2392528  25.7874021   6.1050000  -3.3300000  24.4140000
   6.0920000  -4.3180000  23.6560000   5.6860000  -3.6440000  26.8630000
   5.0162642  -4.4306561  26.5101613   5.0900006  -2.7415879  26.9706787
   6.2000000  -4.0550000  28.2250000   7.0702726  -3.4464931  28.4709605
   6.5513709  -5.0874657  28.1660071   5.1740000  -3.9300000  29.3640000
   3.9550000  -3.7050000  29.1130000   5.5870000  -4.0770000  30.5400000
   5.5320000  -2.1720000  24.0940000   5.5188591  -1.4223320  24.7794420
   4.9050000  -1.9840000  22.7850000   4.1874413  -2.7889821  22.6236482
   5.9420000  -2.0660000  21.6690000   5.7150000  -2.7240000  20.6540000
   4.1440000  -0.6440000  22.7890000   4.8447380   0.1655723  22.9838319
   3.4252789  -0.6521347  23.6095189   3.4010000  -0.3540000  21.5190000
   3.6970000   0.7760000  20.7690000   4.4836732   1.4395954  21.0924973
   2.3470000  -1.1120000  21.1110000   2.0675247  -1.9803457  21.6858335
   3.0250000   1.0470000  19.6190000   3.2861732   1.9146952  19.0287242
   1.6700000  -0.8210000  19.9710000   0.8420116  -1.4481028  19.6743390
   1.9990000   0.2520000  19.2290000   1.4547469   0.4743103  18.3237756
   7.1180000  -1.5000000  21.8780000   7.2755067  -0.9926065  22.7423036
   8.1880000  -1.6150000  20.8950000   7.8311576  -1.2367777  19.9384984
   8.5500000  -3.0790000  20.6500000   8.7190000  -3.5070000  19.5200000
   9.4230000  -0.8280000  21.2840000   9.7691678  -1.1643935  22.2617627
  10.2170360  -1.0511026  20.5711403   9.2400000   0.6790000  21.3310000
   8.5089261   0.9518811  22.0826217  10.1929028   1.1192428  21.6231617
   8.7580000   1.4080000  19.7620000   6.9940000   1.5250000  19.9040000
   6.5929630   2.0339102  19.0268425   6.7414127   2.0908292  20.8006221
   6.5530490   0.5312914  19.9687677   8.6280000  -3.8770000  21.7320000
   8.5846985  -3.4801294  22.6672026   8.9190000  -5.3050000  21.5880000
   9.8653118  -5.4432987  21.0618819   7.8070000  -6.0050000  20.7760000
   8.0590000  -6.9290000  20.0060000   9.0000000  -5.9710000  22.9690000
   8.1392921  -5.6977035  23.5740326   8.9692843  -7.0533190  22.8304388
  10.2640000  -5.6530000  23.7330000  11.2210000  -5.1200000  23.1360000
  10.3900000  -5.9480000  24.9790000   6.5640000  -5.5980000  20.9740000
   6.4056812  -4.8704692  21.6671259   5.4160000  -6.2200000  20.2940000
   5.5197923  -7.2989935  20.3919283   5.3440000  -5.9080000  18.7980000
   4.7060000  -6.6360000  18.0570000   4.1330000  -5.7990000  20.9570000
   4.1512618  -6.0860908  22.0089003   3.2811974  -6.2693014  20.4696750
   4.0216112  -4.7161774  20.8997400   5.9650000  -4.8110000  18.3540000
   6.4539017  -4.2123084  19.0157695   5.8800000  -4.4190000  16.9360000
   4.8349158  -4.2414460  16.6919057   6.3080000  -5.5170000  16.0020000
   5.7820000  -5.6240000  14.8910000   6.6800000  -3.1410000  16.6570000
   6.7523065  -3.0185764  15.5774615   7.6958702  -3.2817381  17.0282481
   6.1280000  -1.8400000  17.2310000   6.1075686  -1.9127673  18.3137353
   6.9870000  -0.6680000  16.8700000   7.0571442  -0.5590202  15.7870799
   7.9905122  -0.8128659  17.2709667   6.5775220   0.2460700  17.2973021
   4.7490000  -1.5880000  16.7560000   4.0716189  -2.3457162  17.1383787
   4.4057242  -0.6296243  17.1452856   4.7191928  -1.5648849  15.6667312
   7.2890000  -6.3300000  16.4100000   7.6981061  -6.1807231  17.3220248
   7.8190000  -7.3990000  15.5490000   7.9914889  -6.9882528  14.5548508
   6.8150000  -8.5410000  15.3550000   7.0470000  -9.4330000  14.5550000
   9.1540000  -7.9520000  16.0530000   9.4039307  -8.8557201  15.4961015
   9.0430000  -8.2940000  17.4360000   9.1537126  -7.5120610  17.9936392
  10.3030000  -6.9600000  15.8740000  11.1485995  -7.2714001  16.4872228
  10.6145706  -6.9628776  14.8325102   9.9949335  -5.9542767  16.1588871
   5.6980000  -8.5030000  16.0520000   5.5549455  -7.7380878  16.6962814
   4.6440000  -9.4550000  15.8140000   5.0521391 -10.4664468  15.8061868
   3.9670000  -9.2060000  14.4750000   3.2840000 -10.0950000  13.9670000
   3.5850000  -9.3510000  16.8960000   2.9172903 -10.2107872  16.8192551
   4.0732076  -9.3790872  17.8688822   2.8000000  -8.1460000  16.7830000
   3.3570167  -7.3980144  17.0609776   4.0360000  -7.9770000  13.9380000
   4.6410056  -7.2799436  14.3550020   3.3630000  -7.6380000  12.6810000
   3.4727355  -6.5694627  12.5171279   1.8640000  -7.9260000  12.7490000
   1.2030000  -8.2700000  11.7500000   3.9650000  -8.3770000  11.5150000
   3.8656922  -9.4531678  11.6441926   3.4259306  -8.1194198  10.6035531
   5.4020000  -8.0210000  11.2690000   5.7680000  -6.8380000  11.2370000
   6.2120000  -9.0300000  10.9670000   7.1765295  -8.8105347  10.7391323
   5.9027009  -9.9744598  11.0802470   1.2930000  -7.7780000  13.9430000
   1.8772474  -7.5859569  14.7426020  -0.0860000  -8.2170000  14.1890000
  -0.5446454  -8.6182731  13.2841081  -0.9380000  -7.0640000  14.6900000
  -0.8770000  -6.7050000  15.8780000  -0.0640000  -9.3450000  15.2260000
   0.3463463  -8.9862141  16.1672995   0.6030753 -10.1287615  14.8630139
  -1.4190000  -9.9650000  15.4700000  -2.4520000  -9.3500000  15.1790000
  -1.5000000 -11.1280000  15.9520000  -1.7260000  -6.4680000  13.7970000
  -1.7396002  -6.8262330  12.8544488  -2.5160000  -5.3080000  14.1240000
  -1.8395397  -4.5390794  14.4987345  -3.5240000  -5.5720000  15.2400000
  -3.7820000  -4.7120000  16.0920000  -3.2110000  -4.7450000  12.8930000
  -3.7733327  -3.8496410  13.1643095  -2.4692520  -4.4863477  12.1379938
  -3.9065079  -5.4797958  12.4838216  -4.0940000  -6.7690000  15.2540000
  -3.7554844  -7.5055355  14.6469451  -5.0280000  -7.1260000  16.3260000
  -5.7928798  -6.3466724  16.3870900  -4.3540000  -7.2030000  17.6760000
  -4.9640000  -6.8420000  18.6900000  -5.7430000  -8.4440000  15.9990000
  -6.2170511  -8.3690882  15.0197830  -6.5080563  -8.6352593  16.7527261
  -5.0261680  -9.2669606  15.9951634  -3.1330000  -7.6870000  17.7560000
  -2.7206747  -8.0801112  16.9104629  -2.4010000  -7.7180000  19.0180000
  -3.0354444  -8.1341865  19.8031238  -2.0220000  -6.2900000  19.4430000
  -2.1520000  -5.8950000  20.5980000  -1.1250000  -8.5620000  18.8790000
  -1.4211357  -9.5906739  18.6623785  -0.5837157  -8.1935606  18.0101010
  -0.1380000  -8.5750000  20.0420000  -0.6345810  -8.9785065  20.9255753
   0.1706759  -7.5516790  20.2587098   1.1260000  -9.3990000  19.7510000
   0.8582773 -10.4477606  19.6076211   1.5526317  -9.0241909  18.8242554
   2.1740000  -9.2640000  20.8860000   2.1510383  -8.2258269  21.2334298
   1.8446871  -9.8834081  21.7264203   3.5970000  -9.6150000  20.4990000
   3.6458406 -10.5734889  20.1770739   3.9142827  -9.0021545  19.7573854
   4.2168337  -9.5052948  21.2933162  -1.5070000  -5.5260000  18.4900000
  -1.4133903  -5.9081477  17.5527091  -1.0040000  -4.2120000  18.8010000
  -0.3480657  -4.2739380  19.6679615  -2.1160000  -3.2450000  19.1930000
  -1.9040000  -2.3670000  20.0400000  -0.2280000  -3.6970000  17.6070000
  -0.8612450  -3.7580353  16.7196044   0.0395791  -2.6504101  17.7567789
   1.0460000  -4.5250000  17.3870000   0.8239915  -5.5883646  17.4452400
   1.6440000  -4.2910000  16.0300000   1.8736358  -3.2345660  15.8940704
   2.5493389  -4.8863881  15.9125510   0.9241525  -4.6238968  15.2859314
   2.0800000  -4.2320000  18.4760000   3.0023854  -4.7448553  18.2343505
   1.7349651  -4.5768242  19.4478796   2.2826060  -3.1628562  18.5283313
  -3.3070000  -3.3950000  18.6210000  -3.4528425  -4.1010071  17.9038136
  -4.3740000  -2.4430000  18.9080000  -3.9343708  -1.4661027  18.7402217
  -4.8080000  -2.4720000  20.3840000  -5.3540000  -1.4890000  20.8810000
  -5.5470000  -2.5970000  17.9560000  -5.1630916  -2.7788093  16.9528637
  -6.3720000  -1.3260000  17.8950000  -7.2357988  -1.5069275  17.2568276
  -6.7591094  -1.0615444  18.8747936  -6.4490000  -3.7540000  18.3350000
  -7.1914794  -3.9099551  17.5504191  -5.8609951  -4.6576449  18.4234255
  -6.9651339  -3.5701568  19.2734316  -5.5620000  -0.1150000  17.3150000
  -4.8657516   0.2759736  18.0527924  -5.0204238  -0.4175788  16.4188244
  -6.2523836   0.6855707  17.0559837  -4.5320000  -3.5640000  21.0900000
  -4.1289204  -4.3697628  20.6252378  -4.8760000  -3.6610000  22.4790000
  -5.9349436  -3.4382446  22.5969795  -4.1550000  -2.6590000  23.3480000
  -4.6130000  -2.3620000  24.4380000  -4.6290000  -5.0700000  22.9740000
  -3.6036093  -5.3687489  22.7559582  -4.7570948  -5.0988853  24.0572660
  -5.6070000  -6.0640000  22.3440000  -5.3997546  -6.1365486  21.2755475
  -5.4082501  -7.0473644  22.7760738  -7.0930000  -5.7200000  22.5610000
  -7.9570000  -5.9510000  21.6400000  -7.4260000  -5.2440000  23.6620000
  -3.0430000  -2.0960000  22.8760000  -2.7084822  -2.3640943  21.9549982
  -2.3090000  -1.0810000  23.6240000  -2.2624497  -1.3668475  24.6737841
  -2.9790000   0.2920000  23.5590000  -2.5340000   1.2240000  24.2380000
  -0.8640000  -0.9790000  23.1010000  -0.8772935  -0.8788934  22.0147611
  -0.4173120  -0.0616185  23.4861375   0.0500000  -2.1200000  23.4850000
   0.0250000  -3.3240000  22.8140000  -0.6717579  -3.4672339  22.0003398
   0.9380000  -1.9940000  24.5260000   0.9878408  -1.0613508  25.0727059
   0.8960000  -4.3720000  23.1620000   0.8667005  -5.3112152  22.6337989
   1.8260000  -3.0190000  24.8710000   2.5311576  -2.8746097  25.6798468
   1.7720000  -4.2030000  24.2200000   2.6380000  -5.2070000  24.5670000
   3.2042759  -4.9485035  25.3016652  -3.9510000   0.4840000  22.6790000
  -4.2792313  -0.3179277  22.1515906  -4.5870000   1.7570000  22.3790000
  -3.9130074   2.5504793  22.7029490  -5.9060000   2.0020000  23.0760000
  -6.7420000   1.1150000  23.1660000  -4.7920000   1.9790000  20.8540000
  -5.3473655   2.9051156  20.7127282  -5.4051294   1.1721679  20.4507814
  -3.5220000   2.0640000  20.0810000  -2.7790000   0.9200000  19.8440000
  -3.1228165  -0.0330802  20.2108564  -3.0290000   3.2820000  19.6100000
  -3.5824804   4.1870913  19.7911448  -1.5900000   0.9780000  19.1320000
  -1.0267943   0.0734598  18.9540181  -1.8420000   3.3510000  18.9040000
  -1.4833405   4.3058008  18.5440673  -1.1300000   2.2010000  18.6560000
  -0.2068570   2.2283035  18.1069508  -6.0960000   3.2370000  23.5150000
  -5.3905002   3.9398437  23.3217307  -7.3970000   3.7050000  24.0010000
  -7.8112081   2.9892819  24.7126082  -8.3300000   3.8370000  22.8170000
  -7.9100000   3.9560000  21.6470000  -7.2580000   5.0780000  24.6640000
  -6.8824716   5.7987868  23.9355863  -6.5558274   5.0201250  25.4960695
  -8.2220458   5.4207061  25.0411095  -9.6230000   3.9010000  23.1170000
  -9.9420683   3.8101489  24.0669787 -10.5990000   4.1250000  22.0530000
 -10.5021145   3.3675765  21.2771624 -10.4340000   5.4730000  21.3710000
 -10.4980000   5.5910000  20.1380000 -12.0020000   4.0290000  22.6360000
 -12.0191834   4.5381405  23.6019038 -12.7090325   4.5582626  21.9959327
 -12.4730000   2.5990000  22.8340000 -11.7151601   2.0485628  23.3977862
 -13.3796933   2.6192790  23.4430381 -12.7810000   1.8780000  21.5260000
 -13.2570000   2.5550000  20.5870000 -12.5520000   0.6350000  21.4390000
 -10.1730000   6.5040000  22.1670000 -10.1657236   6.3634653  23.1614646
  -9.9690000   7.8710000  21.6610000 -10.3929036   7.9684369  20.6601501
  -8.4320000   7.9920000  21.5740000  -7.7320000   8.0290000  22.5890000
 -10.6000000   8.9550000  22.5420000 -10.3126875   9.9345430  22.1561932
 -10.2200428   8.8598201  23.5609206 -12.1080000   8.8620000  22.5610000
 -12.6650000   8.1360000  21.7050000 -12.7750000   9.4450000  23.4410000
  -7.9200000   7.9620000  20.3490000  -8.5419765   7.9109381  19.5572258
  -6.4910000   7.8820000  20.1260000  -5.9848042   8.5017711  20.8592595
  -6.1680000   8.4120000  18.7380000  -7.0360000   8.7540000  17.9480000
  -6.0560000   6.4260000  20.3260000  -6.4328548   6.0572242  21.2797422
  -4.6240000   6.3340000  20.3500000  -4.3877757   6.0160668  21.2441285
  -6.5440000   5.5450000  19.2250000  -7.6327570   5.5252256  19.2301245
  -6.1876887   5.8818377  18.2556989  -6.1905542   4.5306427  19.3925644
  -4.8750000   8.4930000  18.4440000  -4.1968634   8.1414002  19.1117249
  -4.4360000   8.8330000  17.0960000  -5.1206004   8.3680040  16.3894295
  -3.0430000   8.2540000  16.8600000  -2.3030000   7.9750000  17.7970000
  -4.4270000  10.3510000  16.8640000  -4.3200659  10.5321299  15.7951750
  -5.4143212  10.7241224  17.1336462  -3.4200000  11.1980000  17.6050000
  -3.7804384  12.2265743  17.6083951  -3.3773337  10.8629646  18.6422399
  -1.7410000  11.2030000  16.9160000  -1.9980000  11.8780000  15.3360000
  -2.9626224  12.3835405  15.2870753  -1.9777868  11.0735627  14.6000559
  -1.2044510  12.5883284  15.1006683  -2.7600000   8.0020000  15.5870000
  -3.4658772   8.2132641  14.8870975  -1.4770000   7.4790000  15.1220000
  -0.7294862   7.6222674  15.8918470  -1.0790000   8.2130000  13.8630000
  -1.8830000   8.3080000  12.9320000  -1.5890000   5.9960000  14.8300000
  -2.4372256   5.8534566  14.1612150  -1.8142702   5.4785765  15.7636756
  -0.3900000   5.3150000  14.1980000   0.9100000   5.5650000  14.5900000
   1.1131381   6.2695964  15.3818982  -0.5830000   4.3860000  13.2080000
  -1.5900794   4.1726524  12.8750022   1.9800000   4.8700000  14.0180000
   2.9918966   5.0537335  14.3535487   0.4500000   3.7180000  12.6190000
   0.2631912   2.9889008  11.8463763   1.7300000   3.9260000  13.0500000
   2.7570000   3.2160000  12.4710000   3.5921990   3.4053240  12.9169502
   0.1710000   8.6670000  13.7960000   0.7961678   8.5737442  14.5916426
   0.6520000   9.2140000  12.5540000   0.1013324   8.7679232  11.7234506
   2.1190000   8.8870000  12.3490000   2.9670000   9.2060000  13.1830000
   0.4410000  10.7140000  12.4900000  -0.5947624  10.9180310  12.7575090
   1.0739848  11.1939134  13.2344183   0.7110000  11.3510000  11.1430000
   1.7502713  11.1809610  10.8856150   0.1030990  10.8624413  10.3832634
   0.4690000  12.8290000  11.0770000   0.0280000  13.4620000  12.0400000
   0.7470000  13.4130000   9.9100000   1.0627813  12.8474606   9.1222131
   0.6904999  14.4098194   9.8357216   2.4230000   8.3080000  11.1890000
   1.6627986   8.0950364  10.5617596   3.7810000   8.3420000  10.6040000
   4.5521538   8.2841795  11.3779419   3.8480000   9.6800000   9.9020000
   3.0940000   9.9190000   8.9540000   3.9230000   7.1950000   9.6240000
   3.0978445   7.1866155   8.9127300   4.8445855   7.3282869   9.0637722
   4.0150000   5.8670000  10.3500000   4.9350000   5.6820000  11.1170000
   3.0670000   4.9650000  10.1170000   3.0839299   4.1364576  10.6980416
   2.3029953   5.1600778   9.5007940   4.6400000  10.6130000  10.4090000
   5.2431255  10.3680838  11.1907380   4.5330000  12.0170000  10.0380000
   3.5121870  12.3192056  10.2621596   4.6580000  12.3240000   8.5690000
   4.0690000  13.3560000   8.1690000   5.4270000  12.8830000  10.9120000
   5.3767009  13.9144578  10.5604348   6.4629142  12.5557118  10.8138405
   5.0280000  12.8550000  12.3870000   5.2175915  11.8609004  12.7870424
   5.6765487  13.5393013  12.9176677   3.3170000  13.2850000  12.7820000
   3.2920000  15.0220000  12.3780000   4.0437137  15.5497531  12.9648542
   3.5005004  15.1563380  11.3160517   2.3070484  15.4282562  12.6069143
   5.3400000  11.5470000   7.7210000   5.2730000  11.8150000   6.2800000
   5.5747878  12.8474354   6.0848937   3.9080000  11.5640000   5.6300000
   3.7800000  11.9090000   4.4570000   6.3110000  10.8490000   5.6700000
   5.8315222   9.9250425   5.3491645   6.8454421  11.3108218   4.8396253
   7.2410000  10.5450000   6.8460000   7.7732115   9.6052426   6.7174849
   7.9541001  11.3397021   7.0010266   6.3140000  10.4910000   8.0270000
   5.8224146   9.5187342   8.0643780   6.8667497  10.6899183   8.9459791
   2.9760000  10.9490000   6.3330000   3.1339725  10.7875822   7.3199818
   1.7160000  10.4870000   5.7690000   1.5886354  10.9132122   4.7759942
   0.5700000  10.9730000   6.6630000   0.7700000  11.4340000   7.7780000
   1.7290000   8.9720000   5.7180000   0.7708493   8.5935008   5.3632829
   1.8550379   8.6061533   6.7386358   2.8430000   8.3660000   4.8470000
   3.7969881   8.7928298   5.1495000   2.9840000   6.9080000   5.0220000
   2.0709220   6.4020706   4.7097381   3.1792682   6.6819282   6.0686148
   3.8202010   6.5513508   4.4184818   2.6220000   8.6870000   3.4080000
   3.5377049   9.1177450   3.0047762   1.8209150   9.4079416   3.2609202
   2.3823783   7.7910518   2.8326872  -0.6710000  10.9130000   6.1680000
  -1.7680000  11.4650000   6.9540000  -1.5441514  12.5174247   7.1265543
  -2.0430000  10.7610000   8.2710000  -1.8130000   9.5580000   8.3650000
  -2.9870000  11.3590000   6.0100000  -3.5196247  10.4202060   6.1707835
  -3.6641423  12.2046697   6.1296940  -2.3320000  11.3540000   4.6130000
  -2.9885248  10.9104347   3.8635390  -2.0666145  12.3737639   4.3284827
  -1.0820000  10.5430000   4.8000000  -0.3484418  10.8136400   4.0414942
  -1.3143840   9.4779668   4.7555236  -2.5870000  11.4520000   9.2570000
  -2.8950000  10.8290000  10.5370000  -2.0538129  10.2354904  10.8943534
  -4.1350000   9.9410000  10.4640000  -5.0020000  10.1190000   9.6270000
  -3.1260000  12.0240000  11.4620000  -2.1861771  12.3643049  11.8820949
  -3.8224858  11.7935478  12.2692407  -3.6840000  13.0800000  10.5160000
  -4.7386037  12.8867610  10.3194413  -3.5506767  14.0834540  10.9200717
  -2.8890000  12.8970000   9.2480000  -1.9621405  13.4693568   9.2961366
  -3.4776896  13.1903078   8.3785731  -4.2130000   9.0340000  11.4180000
  -3.4114271   8.8982711  12.0250610  -5.3970000   8.2450000  11.6950000
  -6.1530652   8.4035387  10.9242339  -5.9540000   8.6650000  13.0440000
  -5.2340000   8.6260000  14.0450000  -5.0490000   6.7710000  11.7320000
  -4.6855414   6.4567087  10.7523044  -5.9292774   6.1861152  11.9921181
  -4.2685794   6.5845044  12.4708680  -7.2440000   8.9900000  13.0840000
  -7.7957040   8.9127653  12.2432566  -7.9260000   9.3640000  14.3290000
  -7.2010502   9.4182119  15.1432924  -8.9910000   8.3240000  14.7360000
  -9.8320000   7.8920000  13.8810000  -8.5800000  10.7540000  14.2120000
  -9.1466397  10.8185000  13.2813873  -9.2943456  10.8693783  15.0290329
  -7.6010000  11.8770000  14.3010000  -7.0380000  12.4250000  13.1650000
  -7.3214689  12.0306751  12.1972695  -7.1670000  12.3620000  15.5120000
  -7.5532609  11.9290129  16.4271676  -6.0860000  13.4470000  13.2240000
  -5.6518903  13.8553072  12.3258941  -6.2240000  13.3820000  15.5780000
  -5.8927389  13.7359343  16.5425101  -5.6950000  13.9120000  14.4350000
  -4.7100000  14.9300000  14.5130000  -4.5159390  15.1411146  15.4266926
  -8.8920000   7.9120000  15.9970000  -8.1580897   8.2857462  16.5897235
  -9.7900000   6.8950000  16.5580000  -9.9419727   7.1036249  17.6180388
 -10.7643366   6.9248734  16.0685881  -9.2210000   5.5000000  16.4170000
  -8.4930000   5.2070000  15.4500000  -9.5420000   4.6080000  17.3590000
 -10.1161161   4.9014520  18.1497735  -8.9040000   3.3190000  17.4170000
  -7.8252955   3.4719277  17.4635396  -9.1470000   2.4970000  16.1760000
  -8.2350000   1.8280000  15.7220000  -9.3310000   2.5790000  18.7150000
  -9.1566513   3.2668939  19.5387904 -10.4049165   2.3793466  18.6727070
  -8.5980000   1.3060000  19.0200000  -7.5264368   1.5006414  19.0655085
  -8.8071082   0.5602927  18.2517055  -9.0830000   0.7950000  20.3820000
  -8.9102410   1.5962801  21.1009540 -10.1695994   0.6783451  20.3344889
  -8.5200000  -0.3920000  20.9720000  -7.7827778  -0.2644619  21.6514264
  -8.9360000  -1.6290000  20.7310000  -9.8290000  -1.8760000  19.7700000
 -10.2793568  -1.1132164  19.2913636 -10.0624020  -2.8181738  19.5166034
  -8.3960000  -2.6240000  21.4080000  -8.6428983  -3.5946924  21.2350085
  -7.7286685  -2.4393785  22.1295327 -10.3400000   2.5400000  15.5900000
 -11.1266063   2.9473789  16.0712435 -10.5470000   1.7340000  14.3770000
 -10.2879744   0.6945577  14.5992649  -9.6550000   2.1710000  13.2160000
  -9.1270000   1.3310000  12.5380000 -12.0140000   1.7570000  13.9590000
 -12.1058490   1.3125426  12.9667658 -12.3428328   2.7956204  13.8840376
 -12.9450000   0.9990000  14.8960000 -12.4940000   0.1710000  15.7310000
 -14.1720000   1.1540000  14.7950000  -9.5810000   3.4680000  12.9660000
 -10.0539773   4.1197842  13.5736285  -8.6760000   3.9720000  11.9230000
  -8.9732112   3.5221354  10.9730022  -7.2350000   3.5780000  12.1680000
  -6.5100000   3.2500000  11.2140000  -8.7960000   5.4810000  11.7800000
  -9.8281736   5.7474818  11.5531082  -8.1529622   5.8239960  10.9694238
  -8.4965534   5.9681231  12.7072001  -6.8210000   3.6210000  13.4110000
  -7.4610084   3.9279712  14.1373337  -5.4650000   3.1890000  13.7700000
  -4.7542188   3.7543114  13.1667035  -5.2740000   1.7210000  13.4030000
  -4.2940000   1.3710000  12.7700000  -5.1430000   3.4610000  15.2320000
  -5.9013788   2.9921044  15.8563777  -3.8020000   2.8510000  15.6230000
  -3.0163087   3.1925829  14.9491492  -3.8578749   1.7643108  15.6064096
  -3.5507349   3.1484287  16.6405601  -5.1640000   4.9750000  15.5410000
  -4.4952722   5.5000335  14.8654796  -4.8342025   5.1467368  16.5642036
  -6.1531452   5.3916034  15.4146759  -6.2290000   0.8800000  13.8170000
  -7.0195918   1.2203432  14.3608501  -6.1360000  -0.5330000  13.5120000
  -5.2087386  -0.9140434  13.9410526  -6.0780000  -0.7960000  12.0120000
  -5.2770000  -1.6230000  11.5410000  -7.2910000  -1.3000000  14.1370000
  -8.2118260  -1.0983778  13.5875224  -7.4249632  -0.9485956  15.1566086
  -7.0160000  -2.8100000  14.1520000  -6.0554898  -2.9750683  14.6465595
  -6.9155852  -3.1555109  13.1205008  -8.0590000  -3.6560000  14.8350000
  -9.0020000  -3.0970000  15.4120000  -7.8520000  -4.8790000  14.8270000
  -6.8890000  -0.0790000  11.2650000  -7.5612600   0.5348100  11.7197660
  -6.9590000  -0.2880000   9.8320000  -7.1015847  -1.3504389   9.6278879
  -5.6600000   0.1320000   9.1510000  -5.2270000  -0.4800000   8.1780000
  -8.1120000   0.4780000   9.2440000  -8.0240663   0.5002873   8.1561601
  -8.0574717   1.5058685   9.6081820  -9.4470000  -0.1240000   9.6000000
  -9.6399225  -0.9833723   8.9579380  -9.4236120  -0.4868164  10.6275278
 -10.5990000   0.8340000   9.4920000 -10.4760000   1.8530000   8.8480000
 -11.7360000   0.5020000  10.1180000 -12.4819823   1.1727885  10.0903437
 -11.7651281  -0.2905479  10.7357164  -5.0160000   1.1540000   9.6990000
  -5.4387776   1.6234154  10.4941182  -3.7260000   1.6110000   9.1920000
  -3.7863755   1.7739875   8.1156033  -2.6580000   0.5570000   9.4540000
  -1.8740000   0.2160000   8.5660000  -3.3290000   2.9490000   9.8750000
  -3.3399667   2.8327843  10.9577353  -4.2740000   3.9440000   9.5050000
  -5.1558460   3.6388001   9.8031683  -1.9430000   3.4080000   9.4460000
  -1.9185610   3.5160334   8.3612845  -1.7358546   4.3755582   9.9034300
  -1.1797434   2.7003971   9.7674483  -2.5960000   0.0500000  10.6760000
  -3.2667826   0.3536499  11.3774990  -1.6140000  -0.9570000  11.0180000
  -0.6165785  -0.5910429  10.7798324  -1.8420000  -2.2060000  10.1640000
  -0.8910000  -2.8170000   9.6960000  -1.7080000  -1.2620000  12.5160000
  -1.1474449  -2.1762970  12.7156129  -2.7521694  -1.4540644  12.7704552
  -1.1650000  -0.1560000  13.4460000  -1.6404799   0.7928010  13.1992456
  -1.4940000  -0.4850000  14.9020000  -1.5708636  -1.5631551  15.0474831
  -2.4476550  -0.0253486  15.1591824  -0.7336022  -0.0896640  15.5756345
   0.3400000   0.0360000  13.3080000   0.5917934   0.3473221  12.2962746
   0.8609851  -0.8927485  13.5421922   0.6811600   0.8189128  13.9855072
  -3.0940000  -2.5960000   9.9560000  -3.8589382  -2.1094409  10.4153569
  -3.3870000  -3.7830000   9.1390000  -2.8571843  -4.6372519   9.5635258
  -2.8630000  -3.5910000   7.7200000  -2.3070000  -4.5180000   7.1110000
  -4.8930000  -4.1040000   9.1480000  -5.0823846  -5.0095685   8.5704417
  -5.4547520  -3.2769755   8.7119854  -5.2279527  -4.2541017  10.1758608
  -3.0130000  -2.4090000   7.1730000  -3.5247833  -1.6894773   7.6728380
  -2.4680000  -2.1120000   5.8510000  -2.8302066  -2.8362637   5.1197398
  -2.7943119  -1.1164979   5.5512545  -0.9440000  -2.1310000   5.8650000
  -0.3240000  -2.7200000   4.9910000  -0.3480000  -1.4890000   6.8950000
  -0.9024370  -1.0001170   7.5903985   1.1080000  -1.5080000   6.9860000
   1.5365162  -0.9576461   6.1473326   1.6920000  -2.8880000   6.9740000
   2.6700000  -3.1490000   6.2410000   1.5160000  -0.8110000   8.3180000
   0.8624259  -1.1716192   9.1073781   1.3328233   0.2602132   8.2241038
   2.9580000  -1.0480000   8.8080000   3.1842418  -2.1113986   8.8638180
   3.9180000  -0.3850000   7.8670000   3.9171655  -0.8839829   6.9071014
   3.6500610   0.6575446   7.7280316   4.8829141  -0.4147042   8.3503342
   3.1840000  -0.4850000  10.1850000   4.1948385  -0.7199127  10.5182890
   3.0392495   0.5948000  10.1812807   2.4820078  -0.9411676  10.8834956
   1.1070000  -3.7780000   7.7480000   0.3436079  -3.4933233   8.3544668
   1.6520000  -5.1100000   7.8720000   2.7370062  -5.0511403   7.8782332
   1.3040000  -5.9890000   6.6860000   1.7720000  -7.1290000   6.5970000
   1.1980000  -5.7200000   9.1900000   1.5018572  -6.7674485   9.2204308
   0.1082564  -5.6908157   9.2434524   1.8100000  -5.0320000  10.4140000
   1.0060000  -4.6610000  11.4530000  -0.0565508  -4.8456314  11.4044270
   3.1550000  -4.7880000  10.5040000   3.8182064  -5.1171905   9.7158660
   1.5500000  -4.0220000  12.5610000   0.9008207  -3.6883056  13.3528960
   3.7050000  -4.1740000  11.6040000   4.7726607  -4.0337557  11.6612032
   2.8960000  -3.7870000  12.6210000   3.3232562  -3.3016550  13.4872127
   0.5050000  -5.4850000   5.7390000   0.1212710  -4.5566688   5.8619079
   0.3030000  -6.1730000   4.4620000   0.2391535  -7.2483170   4.6322623
   1.4690000  -5.9260000   3.5250000   1.7360000  -6.7420000   2.6470000
  -0.9990000  -5.7220000   3.8260000  -0.9770946  -4.6541966   3.6159696
  -2.0710000  -6.0200000   4.7440000  -1.9574125  -5.5033062   5.5584468
  -1.3300000  -6.4660000   2.5640000  -2.3390412  -6.2049240   2.2451330
  -0.6398168  -6.1886547   1.7688839  -1.2738935  -7.5407324   2.7382632
   2.1910000  -4.8170000   3.7100000   1.9379548  -4.1876366   4.4630526
   3.2730000  -4.4480000   2.8190000   3.2925153  -5.1519058   1.9874141
   4.6610000  -4.5750000   3.4250000   5.6330000  -4.7160000   2.6740000
   3.0570000  -3.0670000   2.1600000   3.8555716  -2.9237443   1.4313160
   1.7460000  -3.0390000   1.4270000   1.4823260  -4.0337449   1.0635823
   0.9409472  -2.6832989   2.0733031   1.8327194  -2.3750450   0.5660466
   3.0860000  -1.9620000   3.0970000   4.0044022  -1.9814795   3.6775894
   3.0436400  -1.0273725   2.5404911   2.2393435  -2.0128832   3.7794530
   4.7790000  -4.5170000   4.7520000   3.9691970  -4.3813660   5.3502887
   6.0910000  -4.6530000   5.3400000   6.7348318  -5.2044450   4.6619370
   6.0720000  -5.4110000   6.6310000   5.0160000  -5.5810000   7.2700000
   6.7310000  -3.3200000   5.6180000   7.7824613  -3.4650128   5.8685902
   6.7031414  -2.7594256   4.6869469   6.1290000  -2.5780000   6.6640000
   6.3144823  -3.0587444   7.6254106   5.0564915  -2.5596565   6.5033237
   6.7710000  -0.7840000   6.7640000   6.4930000  -0.2530000   5.1590000
   5.5045397  -0.5759108   4.8330670   7.2566427  -0.6524749   4.4918829
   6.5393125   0.8363274   5.1375855   7.2350000  -5.9680000   6.9740000
   8.0249240  -5.8085041   6.3582937   7.5130000  -6.5800000   8.2610000
   6.5890849  -6.7330120   8.8194068   8.4370000  -5.6750000   9.0380000
   9.4150000  -5.1940000   8.4950000   8.2040000  -7.9380000   8.0660000
   7.5248187  -8.6190115   7.5532975   9.0939959  -7.8060588   7.4504174
   8.5930000  -8.5030000   9.3180000   9.5769075  -8.4799874   9.4244381
   8.1330000  -5.5060000  10.3190000   7.3179018  -5.9818501  10.7003131
   9.0700000  -4.8900000  11.2550000   9.7315204  -4.1936989  10.7371918
   9.9100000  -6.0770000  11.8070000   9.4280000  -6.8940000  12.5800000
   8.3540000  -4.1440000  12.3630000   7.6793866  -4.8360560  12.8715392
   7.5320000  -3.0020000  11.7790000   8.2282303  -2.2703965  11.3801465
   6.8986474  -3.3575899  10.9667774   9.3580000  -3.6200000  13.3670000
   8.8374521  -3.2108739  14.2316534   9.9700958  -2.8363780  12.9159741
  10.0065294  -4.4141787  13.7339343   6.6390000  -2.2520000  12.7920000
   7.2569167  -1.7048394  13.5033960   6.0038832  -2.9575903  13.3276384
   6.0109263  -1.5383761  12.2583921  11.1250000  -6.1850000  11.3180000
  11.4659019  -5.4678165  10.6858738  11.9950000  -7.3080000  11.6640000
  11.3910702  -8.2059801  11.8121833  12.7380000  -7.1070000  12.9550000
  13.1820000  -8.1110000  13.5380000  12.9830000  -7.5720000  10.5530000
  13.3953068  -6.6286081  10.1907780  13.8175464  -8.1590448  10.9411513
  12.3860000  -8.3530000   9.3870000  11.2380000  -8.8400000   9.5080000
  13.0540000  -8.5230000   8.3420000  12.9350000  -5.8640000  13.4190000
  12.5517310  -5.0807671  12.9039701  13.6850000  -5.6060000  14.6490000
  13.3301770  -6.2590852  15.4485547  13.4330000  -4.1470000  15.0250000
  13.1490000  -3.2980000  14.1750000  15.1600000  -5.8150000  14.4170000
  15.7195194  -5.4428906  15.2749822  15.4699557  -5.2820769  13.5244429
  15.3625215  -6.8793392  14.2937686  13.5050000  -3.8830000  16.3170000
  13.6898733  -4.6242743  16.9777050  13.4010000  -2.5430000  16.8530000
  13.5851340  -1.7949469  16.0813066  14.4540000  -2.4080000  17.9440000
  14.5850000  -3.3000000  18.8060000  12.0480000  -2.2650000  17.4860000
  11.8857675  -2.9887236  18.2863753  11.9940000  -0.8530000  18.1300000
  12.5656548  -0.8389930  19.0572691  12.4088525  -0.1140246  17.4461828
  10.9633823  -0.5821023  18.3557723  10.9470000  -2.4540000  16.5270000
  11.0660126  -1.7676024  15.6876761  10.9171929  -3.4781445  16.1604391
   9.9980950  -2.2448001  17.0192354  15.2660000  -1.3500000  17.8830000
  15.1435304  -0.6741218  17.1304192  16.1880000  -1.0240000  18.9560000
  15.9941585  -1.6721967  19.8117599  15.9550000   0.4010000  19.3970000
  15.9880000   1.3220000  18.5520000  17.6620000  -1.1950000  18.5820000
  17.8159084  -2.2316977  18.2846839  17.9164827  -0.5406229  17.7491702
  18.5580000  -0.8730000  19.7880000  18.0850444  -1.2904179  20.6812119
  18.5852689   0.2116993  19.9161203  19.9680000  -1.3880000  19.7450000
  20.3950000  -1.9990000  18.7550000  20.6510000  -1.1390000  20.7600000
  15.6890000   0.5950000  20.6840000  15.7114361  -0.1868167  21.3212433
  15.4580000   1.9280000  21.2230000  15.2672098   2.6373585  20.4199640
  16.7190000   2.3590000  21.9550000  17.0730000   1.7640000  22.9700000
  14.2360000   1.9660000  22.1600000  14.3767716   1.2350658  22.9574087
  13.0360000   1.6150000  21.4290000  12.4640611   1.1415459  22.0327952
  14.0180000   3.3300000  22.7840000  14.8124830   3.5449381  23.4989640
  14.0177673   4.0976158  22.0093923  13.0654351   3.3491064  23.3112950
  17.3850000   3.3640000  21.4460000  17.0254758   3.8310026  20.6212839
  18.6100000   3.8810000  22.0620000  19.2140079   3.0366343  22.4012055
  18.3320000   4.7380000  23.2690000  19.0430000   4.6870000  24.2810000
  19.4500000   4.6920000  21.0570000  20.4145753   4.9183526  21.5145548
  18.9510396   5.6450041  20.8720923  19.6970000   4.0180000  19.7580000
  19.2760000   4.6250000  18.5660000  18.7733122   5.5806420  18.6002654
  20.3560000   2.8230000  19.6870000  20.7136705   2.3286201  20.5812596
  19.4540000   4.0050000  17.3420000  19.1484192   4.5120233  16.4436228
  20.5270000   2.2190000  18.4570000  21.0302439   1.2612059  18.3993629
  20.0950000   2.8410000  17.2940000  20.2752753   2.3608241  16.3423481
  17.3260000   5.5980000  23.1520000  16.7783996   5.5877825  22.3011251
  17.0080000   6.5870000  24.1670000  17.5182292   6.3369389  25.0900351
  15.5110000   6.6260000  24.4180000  14.7220000   6.5490000  23.4670000
  17.4430000   8.0020000  23.7310000  17.2339684   8.6838027  24.5548530
  16.8444677   8.3314479  22.8827224  18.8800000   8.1340000  23.4040000
  19.3340000   8.7820000  22.2890000  18.7637326   9.2350971  21.5666258
  19.9890000   7.6780000  24.0310000  19.9927780   7.0842541  24.9353675
  20.6580000   8.7510000  22.2810000  21.2857465   9.2124976  21.5334731
  21.0900000   8.0900000  23.3310000  15.1310000   6.7300000  25.6860000
  15.8352702   6.7146909  26.4220129  13.7730000   6.9040000  26.0760000
  13.2533907   7.3436907  25.2358662  13.7090000   7.8920000  27.2170000
  14.5650000   7.8680000  28.0870000  13.0870000   5.5590000  26.3910000
  13.1647696   4.9428621  25.4930825  11.6170000   5.7630000  26.6780000
  11.4939350   6.2614954  27.6406146  11.1899172   6.4093650  25.9133587
  13.7360000   4.8060000  27.5340000  13.0745516   4.7311084  28.3982875
  14.0116656   3.8039813  27.2051938  14.6476053   5.2979775  27.8752092
  10.7680000   4.4550000  26.6900000  11.1585964   3.7369064  27.4073374
   9.7403225   4.6987377  26.9497386  10.7807391   4.0173548  25.6945089
  12.7350000   8.7770000  27.1850000  12.0420830   8.7344855  26.4452367
  12.5560000   9.7250000  28.2500000  13.2291721  10.5689868  28.1157670
  12.7553561   9.2549328  29.2166267  11.1630000  10.2200000  28.2620000
  10.3420000   9.8670000  27.3900000  10.8190000  11.0350000  29.2440000
  11.4353154  11.2095639  30.0326805   9.4160000  11.4660000  29.3030000
   9.1051586  11.7323240  28.2964276   9.2230000  12.6690000  30.1530000
  10.0030000  12.9180000  31.0580000   8.4820000  10.3830000  29.8340000
   7.4518916  10.7396386  29.8386088   8.5396581   9.5090346  29.1882017
   8.8480000   9.9930000  31.1600000   9.5220430   9.3161951  31.0651301
   8.1770000  13.4410000  29.8340000   7.5989694  13.1515494  29.0503206
   7.7060000  14.5840000  30.6620000   7.7387283  14.3021613  31.7146303
   6.2770000  14.9190000  30.2600000   5.8830000  14.7820000  29.1020000
   8.5290000  15.9050000  30.4710000   8.0739196  16.6713241  31.1008218
   8.4064964  16.2342235  29.4396956   9.9060000  15.8830000  30.7740000
  10.1998209  16.7724291  31.0174477   5.4970000  15.4440000  31.2070000
   5.9042036  15.6277141  32.1136317   4.1780000  15.9810000  30.9530000
   3.7127109  16.2187903  31.9112653   3.2480000  15.0590000  30.2220000
   2.4600000  15.5060000  29.3850000   4.2980000  17.2770000  30.1440000
   3.3380392  17.7925967  30.1151029   4.5928711  17.0557525  29.1176898
   5.3160000  18.2400000  30.7600000   5.3760000  18.3990000  31.9950000
   6.1290000  18.8740000  29.9200000   6.7843464  19.5308337  30.3199458
   6.0744350  18.7839435  28.9191513   3.3450000  13.7880000  30.5120000
   4.0205181  13.4750651  31.1908322   2.4440000  12.8470000  29.9350000
   1.4393575  13.2669778  29.8642709   2.3925114  11.9632120  30.5724591
   2.8710000  12.3920000  28.5540000   2.1170000  11.5680000  27.9690000
   4.0990000  12.7730000  28.0930000   4.6518784  13.4309950  28.6286176
   4.6420000  12.3100000  26.8100000   3.9339467  11.6211816  26.3584092
   5.9560000  11.5410000  27.0120000   6.8400000  11.9770000  27.7390000
   4.8660000  13.4620000  25.8580000   5.6000813  14.1371928  26.3009483
   5.2972195  13.0711548  24.9359408   3.6330000  14.2580000  25.5170000
   3.2270278  14.6898425  26.4317606   3.9610000  15.4120000  24.6010000
   3.0634674  15.9962427  24.3978342   4.3787277  15.0464269  23.6630849
   4.6882941  16.0574595  25.0897264   2.5570000  13.4060000  24.8970000
   1.7343799  14.0375063  24.5652287   2.9603921  12.8516567  24.0501135
   2.1719573  12.7075111  25.6351263   6.0240000  10.4070000  26.3270000
   5.2170166  10.1412712  25.7703804   7.1990000   9.5900000  26.2460000
   7.9197522   9.8940065  27.0012579   7.8280000   9.7650000  24.8570000
   7.1250000   9.6990000  23.8520000   6.8260000   8.0820000  26.4970000
   6.0832631   7.7792855  25.7664992   8.0400000   7.2120000  26.3100000
   7.8134737   6.1940257  26.6244242   8.3323497   7.1821751  25.2608139
   8.8706739   7.5863470  26.9095252   6.2160000   7.8890000  27.8760000
   5.3194072   8.4983383  27.9905984   5.9334711   6.8437384  28.0069857
   6.9329837   8.1511057  28.6504142   9.1390000   9.8930000  24.8340000
   9.6569133   9.8671308  25.7065649   9.8710000  10.0500000  23.5870000
   9.1860206  10.0909389  22.7481800  10.8230000   8.8540000  23.4270000
  11.4610000   8.4420000  24.3970000  10.6910000  11.3570000  23.6140000
  11.2265211  11.4540012  22.6686246  11.4360945  11.2959314  24.4090748
   9.8480000  12.5790000  23.8240000   9.5960000  13.0470000  25.1050000
  10.0105038  12.5124348  25.9497377   9.2920000  13.2880000  22.7810000
   9.4638825  12.9410595  21.7715712   8.8090000  14.1550000  25.3320000
   8.6107774  14.4801945  26.3418859   8.5040000  14.4080000  22.9770000
   8.0701636  14.9411866  22.1442776   8.2690000  14.8470000  24.2650000
   7.4960000  15.9630000  24.4140000   7.4300992  16.2242366  25.3348671
  10.9570000   8.3230000  22.1900000  10.4199075   8.7476344  21.4396146
  11.8450000   7.2090000  21.8930000  12.4799040   6.9951218  22.7496216
  12.7250000   7.5290000  20.7020000  12.1470000   7.8280000  19.6290000
  11.0780000   5.8870000  21.5200000  11.7989220   5.1003915  21.2934798
  10.2280000   6.0530000  20.3880000  10.3666010   6.9626898  20.0937903
  10.1670000   5.4120000  22.6910000   9.9518699   6.2132306  23.3951171
  10.6879763   4.6183865  23.2256469   9.2352985   5.0032558  22.3054288
  14.0360000   7.3750000  20.7910000  14.4307941   7.0816939  21.6814325
  14.9300000   7.4640000  19.6480000  14.4082059   7.8935953  18.7916357
  15.3450000   6.0610000  19.2890000  15.9100000   5.3640000  20.1450000
  16.1420000   8.3600000  19.9720000  15.7860927   9.2792114  20.4386814
  16.8092517   7.8515703  20.6678425  16.8940000   8.7080000  18.7140000
  17.3779269   7.8072614  18.3299913  16.1703737   9.0425750  17.9673708
  17.9510000   9.8070000  18.8870000  18.3780000  10.0690000  20.0370000
  18.3300000  10.4060000  17.8400000  15.0240000   5.6240000  18.0640000
  14.6109508   6.2685414  17.3910120  15.1330000   4.2220000  17.7040000
  15.9222844   3.7783405  18.3128873  15.5820000   3.9980000  16.2990000
  15.6230000   4.9100000  15.4850000  13.8970000   3.4580000  17.9800000
  14.0820087   2.3927246  17.9159363  13.6841899   3.6465501  19.0347551
  12.7960000   3.6220000  17.3170000  12.8545352   3.0848967  16.3679289
  12.6394376   4.6795074  17.0988163  11.4830000   3.0850000  18.2540000
  11.1936600   3.8242388  19.0012834  11.7164848   2.1279751  18.7263859
  10.5450000   2.8940000  17.2440000  10.7370352   2.1357370  16.5824897
   9.5350000   3.6890000  16.9440000   9.2090000   4.7480000  17.6520000
   9.7070426   4.9657580  18.4975835   8.5010087   5.3731220  17.2635027
   8.8140000   3.3900000  15.8900000   8.0553126   4.0038094  15.5816788
   9.1016686   2.5848680  15.3256711  15.8920000   2.7320000  16.0080000
  15.8607193   2.0538451  16.7652172  15.9370000   2.2290000  14.6560000
  15.6010955   3.0029637  13.9764279  14.9950000   1.0690000  14.5440000
  14.9900000   0.1700000  15.3880000  17.3550000   1.7940000  14.2240000
  17.7808929   1.1795937  15.0174530  17.3580000   0.9720000  12.9460000
  18.3874789   0.7543654  12.6696231  16.8449770   0.0224128  13.0910432
  16.8748718   1.5306472  12.1447718  18.2380000   3.0250000  14.0510000
  17.9689390   3.5504531  13.1331781  19.2855647   2.7283525  14.0073446
  18.0849535   3.7088537  14.8745472  14.1510000   1.0830000  13.4910000
  14.1770709   1.8693336  12.8497814  13.2980000  -0.0550000  13.1590000
  13.3625797  -0.8200243  13.9315627  13.8000000  -0.6180000  11.8610000
  14.0100000   0.1140000  10.8990000  11.8340000   0.3300000  13.0140000
  11.7479368   1.1126894  12.2588115  11.2770715  -0.5409393  12.6657630
  11.1870000   0.8230000  14.2960000  11.8330000   1.0160000  15.3160000
   9.9290000   1.0550000  14.3020000  14.0070000  -1.9320000  11.8310000
  13.7411822  -2.4778561  12.6448045  14.3990000  -2.6270000  10.5920000
  14.9761294  -1.9584563   9.9531746  13.1570000  -3.0440000   9.8720000
  12.3540000  -3.8300000  10.4210000  15.2560000  -3.8690000  10.8960000
  14.6790056  -4.5668314  11.5011839  15.6460000  -4.5470000   9.6040000
  16.2011091  -3.8525665   8.9714757  16.2726381  -5.4091600   9.8263012
  14.7672004  -4.9036239   9.0675081  16.4870000  -3.4450000  11.6830000
  16.2370650  -2.7486526  12.4793292  17.2010297  -2.9656135  11.0180627
  16.9382571  -4.3047508  12.1325635  12.9020000  -2.4960000   8.6880000
  13.5953167  -1.8445016   8.3308578  11.7110000  -2.6840000   7.8750000
  10.9744142  -3.2501517   8.4457614  12.0340000  -3.4710000   6.6140000
  12.9460000  -3.1240000   5.8910000  11.0780000  -1.3420000   7.5060000
  10.5172040  -1.5059067   6.5855607  11.8743987  -0.6498590   7.2270561
  10.1140000  -0.6100000   8.4600000  10.0047927   0.4035214   8.0727490
   8.7430000  -1.2120000   8.4790000   8.0592925  -0.3982505   8.7159122
   8.6356378  -1.8823792   9.3362882   8.6769023  -1.9085413   7.6259107
  10.6830000  -0.4940000   9.8440000  10.7426002  -1.4781629  10.3043443
  11.6685934  -0.0374705   9.8182191  10.0259083   0.1289986  10.4479900
  11.2430000  -4.5140000   6.3640000  10.5400408  -4.7597356   7.0579868
  11.4250000  -5.3630000   5.2110000  12.2618267  -5.0207605   4.6045061
  10.1640000  -5.3020000   4.3620000   9.0440000  -5.5680000   4.8410000
  11.7190000  -6.7970000   5.6370000  12.6713996  -6.8028161   6.1659407
  10.9612134  -7.1134053   6.3548331  11.7790000  -7.7850000   4.4990000
  10.7739712  -7.9331174   4.1014272  12.3895617  -7.3746941   3.6920842
  12.3520000  -9.1470000   4.9030000  12.2776643  -9.8435388   4.0661300
  13.4133765  -9.0177769   5.1284607  11.7020000  -9.6560000   6.0790000
  12.1185133  -9.3835840   6.9796120  10.5840000 -10.3870000   6.0940000
   9.9630000 -10.7500000   4.9680000  10.2532854 -11.6491199   4.6266778
   9.9423817 -10.0366523   4.2625982  10.1170000 -10.7860000   7.2510000
  10.5434451 -10.3915043   8.0931314   9.2343706 -11.2564347   7.3014001
  10.3250000  -4.9280000   3.1070000  11.2675950  -4.7684920   2.7635363
   9.2220000  -4.8250000   2.1730000   8.3718444  -4.3595320   2.6765151
   8.8350000  -6.2270000   1.7160000   9.6740000  -6.9950000   1.2020000
   9.6110000  -3.9600000   0.9980000   9.9389446  -4.5706324   0.1678824
   8.7527464  -3.3664215   0.6867760  10.3921501  -3.2800157   1.3084850
   7.5950000  -6.6020000   1.9220000   6.9351551  -5.9436708   2.3245189
   7.1330000  -7.9060000   1.5310000   7.8446633  -8.6409090   1.9073187
   7.1510000  -8.0960000   0.0000000   7.5190000  -9.1860000  -0.4580000
   5.7650000  -8.2390000   2.1500000   5.4645128  -9.2301722   1.8057622
   5.0224566  -7.5306742   1.7827799   5.7280000  -8.2260000   3.6820000
   5.9482999  -7.2143821   4.0130929   4.3430000  -8.5470000   4.1980000
   4.0590428  -9.5577433   3.9062774   4.3005593  -8.4556798   5.2842084
   3.6314999  -7.8446981   3.7760062   6.7830000  -9.1160000   4.2890000
   6.7293364 -10.1098535   3.8465788   7.7669908  -8.6773959   4.1356576
   6.6073164  -9.1968231   5.3610228   6.8100000  -7.1020000  -0.8250000
   6.8550000  -7.3090000  -2.2900000   6.2275332  -8.1585260  -2.5632797
   8.2540000  -7.4940000  -2.8810000   8.3780000  -8.0860000  -3.9600000
   6.2610000  -6.0200000  -2.8430000   7.0550690  -5.3225954  -3.1150193
   5.6409131  -6.2164005  -3.7189671   5.4910000  -5.4390000  -1.7720000
   5.4350127  -4.3540264  -1.8633045   4.4813342  -5.8535756  -1.7980603
   6.1330000  -5.8370000  -0.4960000   5.3787993  -5.9587554   0.2805104
   6.8690459  -5.0867253  -0.2054914   9.2920000  -6.9750000  -2.2370000
   9.1492033  -6.4838541  -1.3684933  10.6120000  -6.9780000  -2.8290000
  10.5864313  -7.4028854  -3.8319485  11.6830000  -7.7720000  -2.0680000
  12.7540000  -8.0230000  -2.6290000  11.1040000  -5.5220000  -2.9790000
  12.0219350  -5.5167037  -3.5680497  11.3770000  -4.9780000  -1.6820000
  11.4580911  -4.0089880  -1.8122032  10.0710000  -4.6430000  -3.6720000
   9.2722842  -4.3747949  -2.9819075  10.5444703  -3.7281101  -4.0173945
   9.6599123  -5.1587294  -4.5387352  11.4510000  -8.0950000  -0.7950000
  10.5761237  -7.8111530  -0.3692531  12.4240000  -8.7750000   0.0390000
  12.8948373  -9.5774333  -0.5299151  11.9109231  -9.2098693   0.8953595
  13.5290000  -7.8510000   0.5660000  14.4260000  -8.2930000   1.3180000
  13.5120000  -6.5750000   0.1600000  12.7518326  -6.2530993  -0.4285131
  14.5580000  -5.6410000   0.5470000  15.5085599  -6.1705611   0.6299431
  14.2430000  -5.0300000   1.9180000  13.0710000  -4.8300000   2.2630000
  14.6840000  -4.5590000  -0.5190000  15.3570943  -3.7832467  -0.1486530
  13.7058352  -4.1115234  -0.6930957  15.2400000  -5.0830000  -1.8430000
  14.5260643  -5.7794095  -2.2852078  16.1633564  -5.6271109  -1.6389295
  15.5530000  -3.9650000  -2.8770000  14.6354016  -3.4225284  -3.1180091
  16.2509713  -3.2615005  -2.4192176  16.1700000  -4.5260000  -4.1690000
  16.9329587  -5.2570153  -3.8888127  15.3884686  -5.0563631  -4.7228710
  16.7670000  -3.5070000  -5.0050000  17.2252097  -3.8879676  -5.8166688
  17.3760253  -2.8958773  -4.4808671  16.0004048  -2.9073312  -5.3582876
  15.2790000  -4.7430000   2.6740000  16.2058791  -4.8907558   2.3106885
  15.1440000  -4.2130000   4.0220000  14.1027311  -4.0416687   4.2345707
  15.9090000  -2.8820000   4.1320000  16.8200000  -2.5630000   3.3430000
  15.7190000  -5.2030000   5.0350000  16.7520491  -5.4359606   4.7714636
  15.7172493  -4.7304585   6.0187258  14.9760000  -6.4070000   5.1320000
  15.1751830  -6.8364754   5.9717709  15.5200000  -2.1150000   5.1500000
  14.7198090  -2.4101855   5.7031310  16.1040000  -0.8300000   5.4440000
  17.1449065  -0.8228476   5.1170134  16.0650000  -0.5840000   6.9370000
  15.0560000  -0.8450000   7.6040000  15.3490000   0.2550000   4.6920000
  14.3079373   0.2537332   5.0182603  15.3595516   0.0207897   3.6275939
  15.9320000   1.6420000   4.8800000  17.1160000   2.0070000   4.2820000
  17.6457127   1.2996229   3.6594295  15.2690000   2.6070000   5.6380000
  14.3266058   2.3508473   6.1023788  17.6390000   3.2980000   4.4670000
  18.5665772   3.6034760   4.0071172  15.7760000   3.8600000   5.8230000
  15.2637467   4.5913015   6.4218877  16.9620000   4.1800000   5.2680000
  17.5060000   5.4400000   5.4690000  16.8721375   6.1573045   5.5849102
  17.1430000  -0.0240000   7.4630000  17.9026313   0.2214411   6.8487987
  17.2390000   0.3990000   8.8540000  16.5845164  -0.2127041   9.4798838
  16.7890000   1.8450000   8.9640000  17.5050000   2.7590000   8.5470000
  18.6710000   0.2790000   9.3770000  18.7431734   0.8084163  10.3257280
  19.3667110   0.7513021   8.6832181  19.0930000  -1.1530000   9.5980000
  18.4970000  -2.1000000   9.0580000  20.1060000  -1.3250000  10.4440000
  20.5757679  -0.5231318  10.8191636  20.5099418  -2.2458300  10.5418373
  15.5850000   2.0570000   9.4810000  15.0397327   1.2691983   9.8243637
  14.9710000   3.3840000   9.5350000  15.4144955   4.0103978   8.7611245
  15.1800000   4.0400000  10.8810000  14.7530000   3.5390000  11.9090000
  13.4910000   3.2310000   9.2460000  13.0603567   2.6059045  10.0311058
  13.3746232   2.6830873   8.3098352  12.6480000   4.5170000   9.1500000
  12.7563642   5.0698691  10.0800268  13.1530000   5.3990000   8.0270000
  14.1506558   5.7740121   8.2471636  13.1515118   4.8437036   7.0944187
  12.4966584   6.2597259   7.9157172  11.1720000   4.1830000   8.9900000
  10.9652258   3.8957670   7.9592446  10.8951394   3.3647199   9.6549660
  10.5751583   5.0568629   9.2489235  15.7940000   5.2030000  10.8630000
  16.1657199   5.5405341   9.9887293  16.0010000   6.0250000  12.0600000
  16.2396927   5.3883209  12.9132713  14.7390000   6.8230000  12.3600000
  14.2610000   7.5710000  11.5180000  17.1760000   6.9720000  11.8190000
  16.9557157   7.6103798  10.9608048  17.3059663   7.6077960  12.6955458
  18.3780000   6.2800000  11.5880000  19.0045269   6.8809056  11.1810662
  14.2200000   6.6720000  13.5810000  14.6894170   6.0611931  14.2467577
  12.9600000   7.2580000  13.9760000  12.6275970   7.9896537  13.2399894
  13.0970000   7.9500000  15.3270000  13.7150000   7.3870000  16.2570000
  11.8670000   6.1390000  14.1090000  12.2263055   5.4177932  14.8450571
  11.6960000   5.4010000  12.7940000  11.1647817   6.0304893  12.0801356
  12.6631157   5.1548929  12.3686627  10.5460000   6.6990000  14.6210000
   9.7806895   5.9253794  14.6102348  10.2213198   7.5303547  13.9939631
  10.6377299   7.0300668  15.6543200  10.9760000   4.0780000  12.9250000
  11.4550276   3.4820268  13.7002978   9.9268544   4.2321352  13.1737207
  11.0355400   3.5352867  11.9831047  12.4380000   9.0780000  15.4720000
  11.9563061   9.4640052  14.6649794  12.1840000   9.6940000  16.7800000
  12.5711365   9.0362190  17.5508162  10.6710000   9.7570000  16.9000000
  10.0000000  10.2660000  16.0080000  12.8660000  11.0550000  16.8680000
  12.3882128  11.7369837  16.1629242  13.8966414  10.9154566  16.5514679
  12.9070000  11.7000000  18.2510000  11.8829700  11.8126580  18.5965950
  13.6420000  10.8980000  19.2840000  13.3782238   9.8560786  19.2437715
  14.7174366  10.9935153  19.1269095  13.3911496  11.2763128  20.2737886
  13.5440000  13.0830000  18.1750000  13.3885245  13.6149705  19.1096474
  14.6089878  13.0064930  17.9695759  13.0775843  13.6332598  17.3722923
  10.1520000   9.1820000  17.9740000  10.7804914   8.7706071  18.6538730
   8.7210000   9.1000000  18.1770000   8.2007891   9.6711930  17.4123929
   8.3975818   8.0636627  18.0910396   8.2880000   9.6170000  19.5140000
   9.0480000   9.6890000  20.4830000   7.0260000   9.9970000  19.5760000
   6.4698915   9.9305859  18.7263154   6.3800000  10.4980000  20.7750000
   7.0376281  10.3094839  21.6160721   5.0870000   9.7500000  21.0190000
   4.3330000   9.4420000  20.0930000   6.1720000  12.0380000  20.7120000
   7.1580820  12.4853840  20.5801607   5.3450000  12.4740000  19.5330000
   5.8190274  12.1074702  18.6247509   4.3240668  12.0940740  19.6124457
   5.3261335  13.5577569  19.4842736   5.6250000  12.5660000  22.0200000
   6.1950971  12.1529166  22.8545062   4.5716692  12.2986496  22.1098069
   5.7155196  13.6528067  22.0241771   4.8420000   9.4470000  22.3000000
   5.5337238   9.7048351  22.9965139   3.6800000   8.6690000  22.7490000
   2.9787762   8.5325863  21.9307215   3.0210000   9.3780000  23.9040000
   3.6760000   9.8420000  24.8240000   4.1110000   7.2860000  23.2790000
   3.2190248   6.7382115  23.5849885   4.7260623   7.4160246  24.1641131
   4.8870000   6.4520000  22.2930000   6.2090000   6.7030000  22.0200000
   6.7154196   7.5077198  22.5317062   4.2780000   5.4230000  21.6310000
   3.2341592   5.2058126  21.8068644   6.9220000   5.9430000  21.1120000
   7.9378525   6.1972758  20.8918036   4.9860000   4.6550000  20.7060000
   4.4867266   3.8661865  20.1616199   6.3050000   4.9440000  20.4450000
   6.8503796   4.3835983  19.6989098   1.7000000   9.4540000  23.8500000
   1.2201372   9.0233697  23.0661727   0.9080000   9.9440000  24.9500000
   1.5400877  10.3660822  25.7332409   0.1220000   8.7850000  25.5190000
  -0.5580000   8.0890000  24.7710000  -0.0410000  11.0080000  24.4700000
   0.5120724  11.7995678  23.9656477  -0.7308834  10.5708007  23.7460411
  -0.8390000  11.6110000  25.6460000  -0.1721090  12.1962386  26.2806322
  -1.2870395  10.8352394  26.2654384  -1.9150000  12.4400000  25.1190000
  -2.9050000  11.8980000  24.6510000  -1.7510000  13.7150000  25.1470000
  -2.5110795  14.2750392  24.8015417  -0.9387008  14.1188224  25.5763648
   0.2860000   8.5490000  26.8160000   0.8554034   9.1738220  27.3754286
  -0.4400000   7.4600000  27.5210000  -1.0241411   6.9068758  26.7944593
  -1.3990000   8.0410000  28.5340000  -1.0640000   8.9950000  29.2350000
   0.5050000   6.4870000  28.2010000   1.3021886   7.0339929  28.7087946
  -0.0541734   5.9493538  28.9687968   1.1160000   5.4280000  27.2570000
   0.2802672   4.9904357  26.7087207   2.0730000   6.0080000  26.1780000
   1.5024376   6.5671567  25.4453162   2.5645448   5.1930764  25.6494894
   2.8265637   6.6465092  26.6386007   1.7630000   4.2690000  27.9430000
   1.0618536   3.8163708  28.6427042   2.6405549   4.6043769  28.4972236
   2.0650873   3.5207201  27.2120275  -2.6090000   7.5080000  28.5430000
  -2.8203364   6.7734293  27.8727992  -3.6340000   7.8680000  29.5310000
  -3.2448026   8.5767535  30.2621488  -4.0120000   6.5630000  30.2370000
  -4.5050000   5.6320000  29.6010000  -4.8260000   8.4940000  28.8260000
  -5.2584355   7.7727543  28.1330308  -4.3760000   9.6490000  28.0960000
  -3.4371818   9.5276028  27.9246626  -5.8970000   8.9630000  29.7820000
  -5.4665363   9.6376096  30.5214118  -6.6715984   9.4882988  29.2228996
  -6.3477423   8.1092068  30.2896390  -3.7790000   6.4900000  31.5510000
  -3.4162621   7.2965296  32.0353478  -4.0740000   5.2590000  32.3270000
  -3.5820767   5.3409263  33.2957148  -3.4800000   4.0120000  31.6540000
  -4.1060000   2.9470000  31.5730000  -5.5830000   5.1090000  32.5950000
  -5.7459784   4.2040284  33.1820130  -6.1252067   5.0131765  31.6530654
  -6.1310000   6.2960000  33.3790000  -5.5746176   6.3713591  34.3169526
  -5.9366538   7.2122042  32.8161292  -7.6070000   6.2500000  33.6980000
  -8.1560000   5.1580000  33.7570000  -8.2410000   7.3300000  33.8630000
  -2.2700000   4.1780000  31.1060000  -1.8132518   5.0736898  31.2046764
  -1.5110000   3.0770000  30.5440000  -1.6078087   2.2081729  31.1957887
  -0.4579709   3.3593312  30.5388177  -1.8720000   2.6480000  29.1370000
  -1.3380000   1.6310000  28.6760000  -2.7770000   3.3840000  28.5110000
  -3.2297691   4.1457914  29.0107514  -3.1830000   3.0910000  27.1280000
  -2.6333841   2.2289337  26.7520124  -2.7800000   4.2630000  26.2150000
  -2.7930000   5.4420000  26.5960000  -4.6750000   2.8370000  26.9800000
  -4.9207134   2.7094869  25.9263328  -5.2149098   3.7118415  27.3483976
  -5.1710000   1.5930000  27.7650000  -6.2612674   1.5706631  27.7331185
  -4.8628329   1.6571762  28.8094737  -4.6350000   0.3070000  27.1390000
  -3.5462468   0.3598897  27.1334724  -4.9752641   0.2548846  26.1018350
  -5.0070000  -0.9630000  27.8380000  -6.0912780  -1.1035238  27.7971760
  -4.6999994  -0.8815913  28.8862853  -4.2850000  -2.0940000  27.1780000
  -4.5365747  -2.1454724  26.1875225  -4.5364968  -2.9807701  27.5913206
  -3.2841981  -1.9672810  27.2352375  -2.4450000   3.9480000  24.9630000
  -2.4432291   2.9743779  24.6814441  -1.9430000   4.9590000  24.0380000
  -1.2432974   5.6021278  24.5750176  -3.0660000   5.8180000  23.5030000
  -4.0200000   5.3240000  22.8710000  -1.1680000   4.3260000  22.8690000
  -1.8377154   3.6274204  22.3644551   0.0390000   3.5330000  23.3780000
  -0.2634315   2.8768990  24.1936875   0.7903288   4.2211348  23.7683480
  -0.7380000   5.3820000  21.8390000  -0.0978080   6.1236233  22.3172045
  -0.1914080   4.9140980  21.0227063  -1.6009294   5.8743367  21.3906970
   0.6740000   2.6490000  22.3210000  -0.0791064   2.0055152  21.8641636
   1.1566587   3.2488713  21.5506678   1.4362084   2.0238527  22.7872624
  -2.9510000   7.1040000  23.7650000  -2.2088785   7.4220423  24.3821212
  -3.8420000   8.1000000  23.2520000  -4.7268383   7.6164291  22.8400480
  -3.2510000   8.9100000  22.0820000  -3.9810000   9.6280000  21.3960000
  -4.3870000   9.0320000  24.3960000  -4.9686269   9.8572788  23.9837663
  -3.3360000   9.4970000  25.1850000  -3.2426712  10.4517893  24.9707643
  -5.1860000   8.2870000  25.3810000  -5.9800513   7.7529771  24.8628973
  -4.5749694   7.5724554  25.9335290  -5.6696900   8.9906772  26.0549366
  -1.9630000   8.8050000  21.8570000  -1.3926625   8.2587695  22.4900137
  -1.3470000   9.4180000  20.6850000  -1.2027019  10.4833386  20.8602288
  -1.9894842   9.2939642  19.8153538   0.0030000   8.7720000  20.4390000
   0.6950000   8.4360000  21.3630000   0.3190000   8.5950000  19.1660000
  -0.3876309   8.7464236  18.4533931   1.6240000   8.0340000  18.7640000
   2.3771940   8.2686669  19.5111621   2.0060000   8.6870000  17.4380000
   1.2990000   8.5110000  16.4440000   1.5570000   6.5170000  18.6240000
   0.7173189   6.2620357  17.9751278   1.3563806   6.0913884  19.6068661
   2.7940000   5.8560000  18.0840000   4.0690000   6.3240000  18.0910000
   4.4063609   7.2592264  18.5213428   2.8220000   4.5850000  17.4180000
   4.8830000   5.4170000  17.4610000   5.8459698   5.6178497  17.1838298
   4.1480000   4.3330000  17.0480000   1.8440000   3.6470000  17.0980000
   0.8143931   3.8679847  17.3212792   4.5180000   3.2050000  16.3750000
   5.5474564   3.0600267  16.0767827   2.2100000   2.4960000  16.4240000
   1.4612609   1.7712536  16.1383900   3.5600000   2.2890000  16.0760000
   3.8373923   1.3934073  15.5365721   3.1070000   9.4450000  17.4330000
   3.6558995   9.5351196  18.2849620   3.5810000  10.0720000  16.2140000
   3.0312110   9.6969243  15.3628426   5.0610000   9.7080000  16.0250000
   5.8850000   9.9920000  16.8990000   3.4100000  11.5880000  16.2690000
   3.9182007  11.9724463  17.1520961   3.8817323  12.0345142  15.3928966
   1.9520000  11.9950000  16.3040000   1.4414623  11.4561578  17.1003484
   1.4854766  11.7066850  15.3640718   1.7290000  13.4640000  16.5180000
   2.2366554  14.0079284  15.7176976   0.6641774  13.6810096  16.4238610
   2.2290000  13.9550000  17.7930000   3.0946664  14.5031061  17.7853015
   1.6040000  13.8080000  18.9630000   0.4390000  13.1520000  19.0470000
  -0.0564406  13.1178278  19.9155100   0.0408654  12.7839956  18.2009315
   2.1580000  14.3110000  20.0560000   1.7389973  14.2097105  20.9558482
   3.0373586  14.8327600  19.9388244   5.3940000   9.1150000  14.8760000
   4.6670781   8.9620230  14.1857453   6.7830000   8.7810000  14.5260000
   7.4467082   8.9119596  15.3817867   7.2500000   9.7040000  13.4190000
   6.5880000   9.8460000  12.3770000   6.8480000   7.3310000  14.0700000
   5.9614092   7.0895721  13.4793915   7.7088489   7.2207581  13.4086004
   7.0240000   6.3100000  15.1680000   7.3740000   6.6660000  16.3130000
   6.8210000   5.0910000  14.8870000   8.4090000  10.2870000  13.6230000
   8.8935397  10.1068862  14.4976871   9.0650000  11.2090000  12.7030000
   8.3730248  11.4888325  11.9081110  10.2900000  10.5520000  12.0740000
  11.1520000   9.9970000  12.7790000   9.4870000  12.4900000  13.4330000
  10.1120235  12.2269781  14.2864384  10.1164790  13.0681282  12.7559167
   8.3650000  13.3870000  13.9190000   7.5470000  13.0310000  14.9880000
   7.6966325  12.0848741  15.4912536   8.1630000  14.6240000  13.3030000
   8.7934563  14.9331761  12.4785457   6.5610000  13.9010000  15.4460000
   5.9401821  13.6334213  16.2885695   7.1730000  15.5050000  13.7820000
   7.0250000  16.4731371  13.3378734   6.4030000  15.1220000  14.8530000
   5.4330000  16.0290000  15.2760000   5.0713481  15.7770082  16.1613129
  10.3710000  10.6320000  10.7580000   9.6394358  11.0910575  10.2317102
  11.4360000  10.0220000   9.9750000  12.4051760  10.3303023  10.3685420
  11.3290000  10.5070000   8.5320000  10.3490000  11.1510000   8.1340000
  11.3480000   8.4730000  10.0290000  11.4923071   8.1374761  11.0544079
  12.1667323   8.0448194   9.4510156  10.0320000   7.9250000   9.5160000
   9.8720000   7.5990000   8.1890000  10.6928998   7.7387850   7.5040104
   8.9500000   7.7070000  10.3490000   9.0365610   7.9317944  11.4023888
   8.6840000   7.0850000   7.7080000   8.5998794   6.8259396   6.6650371
   7.7730000   7.2010000   9.8730000   6.9529657   7.0245431  10.5538888
   7.6660000   6.8790000   8.5420000   6.7523720   6.4423502   8.1671985
  12.3190000  10.1390000   7.7330000  13.0799808   9.5878417   8.0973226
  12.3620000  10.4490000   6.3210000  11.7513813  11.3274862   6.1169741
  11.7930000   9.2680000   5.5190000  12.3040000   8.1460000   5.5820000
  13.7870000  10.7580000   5.8770000  14.3963315   9.8614008   5.9934227
  14.2031332  11.5108799   6.5302982  13.8180000  11.2100000   4.4540000
  13.3250000  12.3170000   4.1900000  14.2600000  10.4600000   3.5490000
  10.7720000   9.4970000   4.6980000  10.3754652  10.4394531   4.6429839
  10.1400000   8.4170000   3.9660000  10.1309869   7.5258980   4.5939022
  10.9010000   8.0630000   2.6880000  10.9680000   6.8870000   2.3130000
   8.6920000   8.7920000   3.6460000   8.1978243   9.0508816   4.5780709
   8.6971104   9.6865802   3.0212741   7.8600000   7.7080000   2.9520000
   8.3337412   7.4539313   2.0072431   7.7410000   6.4420000   3.8050000
   7.4054325   6.7082841   4.8031637   8.7050088   5.9386392   3.8419867
   7.0102447   5.7688174   3.3676340   6.4810000   8.2340000   2.6300000
   6.5480649   9.1653611   2.0744060   5.9399970   7.5008610   2.0285933
   5.9295210   8.4106004   3.5521033  11.4270000   9.0460000   1.9610000
  11.4701692   9.9707773   2.3753974  11.9900000   8.7920000   0.6340000
  11.2458732   8.2764554   0.0242282  13.1770000   7.8560000   0.6880000
  13.2960000   6.9850000  -0.1880000  12.3720000  10.0880000  -0.0450000
  12.9749551  10.6655966   0.6591109  11.4650030  10.6546000  -0.2579707
  13.1510000   9.8890000  -1.3220000  12.5748742   9.2583992  -2.0017756
  14.0880716   9.3729933  -1.1089177  13.5250000  11.1450000  -2.0420000
  12.6035159  11.5777970  -2.4343141  14.1722780  10.8801551  -2.8817930
  14.1890000  12.0580000  -1.1790000  14.5543363  11.7134122  -0.3024205
  14.2410000  13.3280000  -1.4190000  13.7570000  13.8210000  -2.5790000
  13.3280778  13.2295187  -3.2623611  13.8118415  14.8384960  -2.7191773
  14.7620000  14.1320000  -0.5290000  14.9172884  15.1216747  -0.7548001
  15.0287199  13.7976153   0.3795724  14.1000000   8.0130000   1.6260000
  14.0385749   8.7654449   2.3157911  15.2620000   7.1450000   1.6220000
  15.7755368   7.2072441   0.6607748  14.8320000   5.6770000   1.8280000
  15.4090000   4.7650000   1.2680000  16.2530000   7.5600000   2.7380000
  15.6962282   7.4299935   3.6676976  17.0258217   6.7896401   2.7539608
  16.9810000   8.8640000   2.8650000  17.7492465   8.8945454   2.0877502
  16.3224167   9.6994849   2.6530107  17.6400000   9.0070000   4.2610000
  18.9200000   8.8600000   4.3310000  16.8310000   9.2100000   5.2270000
  13.8790000   5.4630000   2.6900000  13.4687378   6.2630739   3.1526483
  13.3060000   4.1380000   2.9310000  14.0959396   3.4598822   3.2543340
  12.7110000   3.5890000   1.6290000  13.0190000   2.4740000   1.2050000
  12.2680000   4.2850000   4.0270000  11.5896283   5.0902297   3.7643614
  12.7829058   4.5970682   4.9331450  11.4670000   3.1080000   4.3470000
  11.8700000   1.8050000   4.1540000  12.8161959   1.5946387   3.6783996
  10.2910000   3.3420000   5.0230000   9.9825834   4.3533621   5.2489833
  11.0810000   0.7660000   4.5030000  11.4017713  -0.2489953   4.3150689
   9.5000000   2.2990000   5.4000000   8.5706327   2.4844352   5.9201926
   9.8870000   1.0120000   5.1350000   9.2626035   0.1883554   5.4444741
  11.8500000   4.3660000   0.9870000  11.6192138   5.2779112   1.3679372
  11.2310000   3.9270000  -0.2620000  10.5960621   3.0578778  -0.0836836
  12.2480000   3.5380000  -1.3040000  12.0440000   2.5560000  -2.0320000
  10.3950000   5.0360000  -0.8560000  10.1459760   4.7445839  -1.8790870
  10.9974842   5.9428669  -0.9117143   9.1380000   5.3600000  -0.1590000
   8.6080988   4.4776027  -0.2315492   9.3069087   5.6510936   0.8741947
   8.2900000   6.3990000  -0.9180000   8.6540000   6.7810000  -1.9760000
   7.2430000   6.7850000  -0.4240000  13.2770000   4.3390000  -1.4480000
  13.3435890   5.1688160  -0.8654122  14.3310000   4.0950000  -2.4520000
  13.8636698   3.9110114  -3.4207982  15.1060000   2.8420000  -2.1170000
  15.4850000   2.0770000  -3.0170000  15.2800000   5.3210000  -2.5940000
  15.6441551   5.6096800  -1.6066602  16.1337052   5.0400840  -3.2127488
  14.5780000   6.4860000  -3.2440000  14.2283487   6.1566910  -4.2259677
  13.6889985   6.7447705  -2.6694616  15.4100000   7.7520000  -3.4310000
  16.4820000   7.8820000  -2.8290000  14.9440000   8.6210000  -4.1430000
  15.3530000   2.6000000  -0.8610000  15.0603160   3.2625712  -0.1497841
  16.1150000   1.4250000  -0.4830000  17.0236303   1.3875607  -1.0859944
  15.3620000   0.1090000  -0.7120000  15.9690000  -0.9300000  -1.0050000
  16.5100000   1.5130000   0.9610000  17.1199438   0.6499748   1.2305979
  15.6196555   1.5453091   1.5900612  17.0870238   2.4234394   1.1291116
  14.0520000   0.1140000  -0.5620000  13.6013058   0.9880489  -0.3081626
  13.2590000  -1.1130000  -0.6320000  13.9384284  -1.9557515  -0.6689099
  12.4180000  -1.2530000  -1.8890000  11.7230000  -2.2590000  -2.0570000
  12.3970000  -1.3360000   0.6200000  12.0203999  -2.3471254   0.5407642
  13.2660000  -1.2990000   1.8670000  12.6907347  -1.6408682   2.7263685
  13.6061346  -0.2804279   2.0502115  14.1304177  -1.9494688   1.7390094
  11.2300000  -0.3770000   0.7420000  10.7213492  -0.5280809   1.6932406
  11.5664217   0.6509624   0.6783825  10.5216619  -0.5546068  -0.0661091
  12.4530000  -0.2600000  -2.7680000  13.0307195   0.5530346  -2.5835850
  11.7910000  -0.3420000  -4.0820000  12.0026685   0.5917096  -4.6055101
  10.2990000  -0.4150000  -3.9640000   9.6340000  -1.1590000  -4.6830000
  12.3440000  -1.4990000  -4.9580000  11.7374999  -1.5972409  -5.8594967
  12.3141381  -2.4497354  -4.4315909  13.7530000  -1.2560000  -5.4320000
  14.3130000  -0.1220000  -5.3560000  14.3880000  -2.2160000  -5.9480000
   9.7250000   0.3810000  -3.0800000  10.3040935   1.0119234  -2.5352561
   8.2840000   0.4500000  -2.9790000   7.8115647   0.0580490  -3.8778957
   7.8360000   1.9120000  -2.7490000   8.2790000   2.4860000  -1.7270000
   7.9250000  -0.3770000  -1.8020000   8.4651290  -1.3220585  -1.9090330
   8.3213304   0.1015035  -0.9042102   6.4790000  -0.7290000  -1.5560000
   5.9144198   0.1649805  -1.3001210   5.8330000  -1.3950000  -2.7550000
   6.4483333  -2.2269644  -3.0991741   5.7109808  -0.6840887  -3.5614854
   4.8417126  -1.7604038  -2.4870832   6.4840000  -1.6600000  -0.4160000
   7.0000081  -2.5826997  -0.6799108   6.9681475  -1.2047346   0.4479468
   5.4578267  -1.8959804  -0.1352864   7.0170000   2.5050000  -3.6250000
   6.5940000   3.8780000  -3.4040000   7.4334711   4.5370583  -3.1749195
   5.5330000   3.9560000  -2.3590000   4.3560000   3.8370000  -2.6110000
   5.9490000   4.2640000  -4.7290000   5.2857946   5.1266199  -4.6395156
   6.7233133   4.4769171  -5.4689997   5.2150000   3.0520000  -5.1010000
   4.9824471   3.0747540  -6.1661775   4.2941743   2.8150411  -4.5872364
   6.3060000   1.9930000  -4.8320000   7.0001793   1.9390762  -5.6718906
   5.8419107   1.0265558  -4.6681316   5.9210000   4.4380000  -1.2190000
   6.8923552   4.6903650  -1.1185842   5.1390000   4.3700000  -0.0210000
   4.5357664   3.4629126  -0.0350209   4.1450000   5.4950000   0.2070000
   3.5410000   5.5240000   1.2800000   6.1380000   4.3250000   1.1180000
   5.5804087   4.2673371   2.0540393   6.6946478   5.2460009   1.1871211
   7.1290000   3.1390000   1.1020000   7.6369910   2.9803726   0.2279333
   8.1040000   3.1540000   2.2600000   7.5641018   3.1287589   3.2058498
   8.7069032   4.0551264   2.2307821   8.7753553   2.2971079   2.1955312
   6.3000000   1.9380000   1.1910000   5.6178338   1.9894350   2.0394702
   6.9437947   1.0689589   1.3182935   5.7402312   1.7823505   0.2720595
   4.0180000   6.4240000  -0.7220000   4.6036777   6.3347502  -1.5403446
   2.8520000   7.3650000  -0.7110000   2.4573753   7.4471052   0.3029413
   1.6640000   6.9250000  -1.5850000   0.6700000   7.6860000  -1.7940000
   3.2370000   8.7580000  -1.1950000   2.3884771   9.4350588  -1.0780600
   3.4931046   8.7018873  -2.2546618   4.3850000   9.3070000  -0.4290000
   5.2550409   8.6545469  -0.5048967   4.1034902   9.3801751   0.6220100
   4.7860000  10.7240000  -0.9330000   3.8993025  11.3611334  -0.9676737
   5.4956501  11.1513970  -0.2218463   5.4040000  10.6130000  -2.2330000
   5.4943503   9.6928844  -2.6315166   5.7370000  11.6490000  -2.9670000
   5.5720000  12.8520000  -2.4690000   5.8652310  13.7041234  -2.9691005
   5.1080465  12.9859097  -1.5917492   6.2800000  11.4530000  -4.1450000
   6.5955175  12.2791837  -4.6425116   6.3722965  10.5227254  -4.4921315
   1.7590000   5.7130000  -2.1270000   2.5946651   5.1551118  -2.0005943
   0.7200000   5.1450000  -2.9810000   0.0913413   4.4844324  -2.3893507
   0.0922746   5.9307965  -3.3983843   1.2130000   4.3240000  -4.1660000
   0.9450000   4.6760000  -5.3380000   1.8630000   3.2750000  -3.9520000
 -18.6917906  -7.8890720  -5.6247401 -18.7917906  -7.1400720  -5.0377401
 -18.1467906  -8.5060720  -5.1367401  -3.4107906  -4.5600720 -15.9237401
  -3.5057906  -5.4380720 -15.5537401  -4.1757906  -4.4550720 -16.4887401
  -1.5247906 -16.3010720  10.5452599  -2.2717906 -16.6100720  11.0582599
  -1.8927906 -15.6380720   9.9612599 -15.8487906   5.7099280 -15.2527401
 -16.5537906   5.1529280 -14.9227401 -15.8237906   6.4489280 -14.6447401
  -1.6877906 -20.4150720   2.3492599  -1.8477906 -21.2640720   1.9372599
  -1.1777906 -19.9260720   1.7032599 -16.1017906  -2.8540720   2.0842599
 -16.4287906  -2.1990720   2.7022599 -15.1597906  -2.6910720   2.0392599
 -10.9277906  -9.5960720  -7.3047401 -11.5227906 -10.3190720  -7.1057401
 -10.0557906  -9.9880720  -7.2767401 -16.9337906 -14.5950720 -10.6847401
 -17.3987906 -15.3920720 -10.9377401 -16.9097906 -14.0680720 -11.4837401
  -7.7077906  -3.7360720  -3.7807401  -8.5187906  -3.9180720  -4.2557401
  -7.0227906  -3.7920720  -4.4477401 -22.1767906  -7.4910720 -10.8497401
 -22.9997906  -7.1710720 -11.2217401 -21.9037906  -8.1920720 -11.4407401
  -3.9567906  -2.9510720 -10.1017401  -4.3437906  -3.3920720  -9.3447401
  -4.6637906  -2.4080720 -10.4497401 -13.7487906 -12.8820720  -1.5597401
 -14.3547906 -13.3150720  -0.9577401 -13.4187906 -13.5880720  -2.1157401
 -11.5867906 -10.2160720 -13.6817401 -12.1707906  -9.7660720 -13.0717401
 -11.1337906 -10.8670720 -13.1457401  -5.3457906  -6.3370720  -1.4777401
  -4.8647906  -6.4200720  -0.6537401  -4.6807906  -6.4560720  -2.1557401
  -0.7327906 -12.0600720 -13.0497401  -0.8217906 -11.8260720 -13.9737401
  -0.0737906 -11.4530720 -12.7117401 -17.1977906  -7.8780720 -10.4357401
 -17.0477906  -7.8470720  -9.4907401 -18.0587906  -7.4780720 -10.5557401
 -20.2797906 -14.4010720   9.4612599 -19.5387906 -13.9890720   9.9072599
 -19.9497906 -14.6040720   8.5862599  -9.8817906   3.9879280  -5.1877401
  -8.9487906   3.7959280  -5.2767401 -10.2887906   3.5569280  -5.9387401
   5.2242094 -16.0010720 -13.8367401   4.2842094 -15.8810720 -13.9727401
   5.4032094 -16.8850720 -14.1557401  -4.4497906  -0.2050720 -18.7047401
  -5.1037906   0.4849280 -18.8187401  -4.5337906  -0.7470720 -19.4887401
 -12.1277906  -5.5800720 -12.7207401 -11.6787906  -4.7390720 -12.6367401
 -12.9357906  -5.4710720 -12.2187401  -4.3807906 -16.7070720   5.6602599
  -4.6977906 -17.0500720   6.4952599  -4.4407906 -17.4480720   5.0572599
   5.9872094 -11.6250720  -3.6127401   5.0482094 -11.5640720  -3.7867401
   6.0442094 -11.9680720  -2.7207401 -20.4237906  -0.7940720 -15.5397401
 -19.6307906  -0.2580720 -15.5387401 -20.1397906  -1.6440720 -15.2037401
  -4.8347906  -7.1080720  -8.7207401  -5.5607906  -7.2000720  -9.3377401
  -5.1087906  -7.6080720  -7.9517401  -9.2827906  -6.8860720 -18.8507401
  -9.9117906  -7.5870720 -18.6797401  -9.7347906  -6.3010720 -19.4587401
  -5.8797906   0.4639280  -6.0187401  -5.5347906   1.3399280  -6.1877401
  -5.1497906  -0.1240720  -6.2127401 -18.3807906   7.2219280   6.8482599
 -17.9147906   6.5449280   6.3572599 -19.0287906   7.5629280   6.2312599
 -11.0527906   1.5539280 -10.8427401 -11.1227906   2.3179280 -11.4137401
 -10.7367906   0.8539280 -11.4147401  -8.2817906   4.4849280 -17.4947401
  -7.6577906   4.4789280 -18.2207401  -7.8407906   3.9999280 -16.7967401
 -21.2237906 -13.6960720 -14.2477401 -20.8997906 -14.4840720 -14.6827401
 -20.4377906 -13.2700720 -13.9047401 -18.4347906 -19.8690720  -2.7477401
 -19.3657906 -19.7320720  -2.9217401 -18.0447906 -19.9930720  -3.6127401
 -11.7937906 -19.3830720  -1.2397401 -12.0557906 -18.4620720  -1.2467401
 -11.1207906 -19.4360720  -0.5617401  -7.6577906 -20.8840720 -10.5137401
  -8.0477906 -20.1360720 -10.9657401  -7.7227906 -21.6040720 -11.1407401
  -7.3937906  -7.5290720  -6.2907401  -8.0027906  -7.5830720  -5.5537401
  -7.9447906  -7.3080720  -7.0417401 -15.9377906   5.3619280  -9.6277401
 -15.7207906   6.2449280  -9.3297401 -15.7957906   5.3859280 -10.5737401
 -10.5357906 -12.4880720   7.5742599 -10.9367906 -11.7370720   7.1382599
  -9.8267906 -12.1120720   8.0962599   5.7222094  -5.9930720 -11.7427401
   5.6362094  -5.4150720 -12.5007401   5.3752094  -5.4830720 -11.0107401
 -14.4587906 -15.1800720 -15.8837401 -13.7947906 -14.6580720 -16.3337401
 -14.8247906 -14.5870720 -15.2267401   1.5722094 -12.1530720  -2.0207401
   1.9082094 -13.0460720  -2.0907401   1.4782094 -12.0050720  -1.0797401
 -15.0187906  -7.7940720 -12.2937401 -15.6537906  -8.0550720 -11.6267401
 -14.4477906  -8.5560720 -12.3927401 -13.7267906 -18.7570720  -7.0847401
 -13.5467906 -18.3010720  -7.9067401 -13.0397906 -18.4580720  -6.4877401
  -6.9617906  -7.5710720 -10.3747401  -7.6477906  -6.9980720 -10.7167401
  -7.4107906  -8.3930720 -10.1777401 -15.1637906  -4.2630720  -6.8837401
 -15.6797906  -3.6700720  -6.3367401 -15.1987906  -5.1030720  -6.4257401
  -0.3577906 -17.9590720 -16.7217401  -1.1307906 -17.9890720 -17.2857401
  -0.0147906 -17.0720720 -16.8327401  -1.5837906  -1.0630720  -4.4387401
  -1.9367906  -0.5260720  -3.7287401  -0.8647906  -0.5430720  -4.7987401
 -15.6047906 -13.3610720  10.4662599 -15.4527906 -12.8220720  11.2422599
 -14.7477906 -13.4230720  10.0452599 -12.4027906   4.3199280   7.4092599
 -12.4107906   4.7189280   6.5392599 -13.1967906   4.6489280   7.8312599
 -11.6207906   4.7329280 -17.8277401 -11.5617906   5.6829280 -17.7257401
 -11.1737906   4.3809280 -17.0587401 -18.1257906 -17.9530720  -7.0387401
 -18.9787906 -17.6140720  -7.3127401 -17.5817906 -17.1730720  -6.9317401
  -9.6657906  -9.2450720   7.6722599  -9.2387906  -9.5170720   6.8592599
  -8.9507906  -9.1600720   8.3022599 -11.4467906  -0.7470720  -6.4057401
 -11.4677906   0.0219280  -6.9767401 -10.5257906  -1.0060720  -6.3867401
  -7.2417906 -17.0620720   3.8222599  -6.6897906 -16.4210720   3.3742599
  -7.5457906 -17.6450720   3.1272599  -8.2797906  -2.0380720 -11.5787401
  -8.7917906  -2.6030720 -11.0007401  -8.9057906  -1.3840720 -11.8907401
 -17.8957906  -7.4840720 -13.3317401 -17.5697906  -8.2830720 -12.9167401
 -18.4167906  -7.0560720 -12.6527401 -10.8707906 -16.6330720  -0.9547401
 -10.0017906 -16.2470720  -1.0617401 -11.0467906 -16.5720720  -0.0157401
 -19.8127906   2.1569280 -14.3927401 -20.2527906   1.5669280 -13.7807401
 -19.0217906   1.6859280 -14.6547401 -13.4217906 -15.5660720  -5.8257401
 -14.3447906 -15.7430720  -5.6447401 -13.2677906 -15.9540720  -6.6867401
 -16.3537906  -2.5170720  -5.1747401 -17.0157906  -2.6080720  -4.4897401
 -15.7227906  -1.8930720  -4.8167401 -10.0857906 -16.8220720  -6.3507401
  -9.2567906 -17.2880720  -6.4627401 -10.4427906 -17.1630720  -5.5297401
 -11.8937906  -6.0490720  -7.4847401 -12.7417906  -6.4560720  -7.6607401
 -12.0837906  -5.1120720  -7.4297401 -11.5347906 -12.9120720 -10.0357401
 -11.4717906 -13.6210720  -9.3947401 -12.1397906 -12.2850720  -9.6417401
 -15.4357906   7.2479280 -17.7057401 -16.1317906   6.7229280 -18.1007401
 -15.5257906   7.0959280 -16.7647401  -7.1227906  -2.9570720 -14.8367401
  -6.9457906  -2.9610720 -15.7767401  -6.5647906  -3.6510720 -14.4847401
 -16.8057906 -20.6840720 -14.9227401 -15.9567906 -21.0930720 -15.0917401
 -16.6517906 -19.7490720 -15.0547401 -13.4007906 -12.8430720 -12.8217401
 -12.9117906 -13.1090720 -12.0427401 -12.7937906 -12.2820720 -13.3047401
 -11.8447906  -3.1680720  -3.4197401 -11.2097906  -3.6810720  -3.9197401
 -12.6737906  -3.6310720  -3.5367401 -13.7397906 -11.4830720  -9.4067401
 -13.5037906 -11.2430720  -8.5107401 -14.6727906 -11.6940720  -9.3607401
 -14.1497906   1.5209280 -13.6587401 -13.6487906   1.1389280 -12.9377401
 -13.5077906   1.6459280 -14.3577401 -10.6217906 -18.5370720 -12.7367401
 -10.2297906 -18.0570720 -12.0067401  -9.9867906 -19.2240720 -12.9417401
 -20.0487906 -11.2430720  -3.4467401 -20.6147906 -10.7710720  -4.0577401
 -20.6547906 -11.6960720  -2.8597401 -19.0197906 -15.6350720  -0.8397401
 -18.2767906 -16.1700720  -1.1177401 -19.7707906 -16.0100720  -1.3007401
 -15.5477906 -16.0770720  -8.6157401 -16.1627906 -15.4990720  -9.0677401
 -15.1717906 -16.6180720  -9.3097401 -18.3227906 -17.2490720 -10.7747401
 -18.9937906 -17.8870720 -10.5347401 -18.0607906 -17.4970720 -11.6607401
  -4.6067906 -10.3670720  -8.2937401  -4.0227906 -10.4060720  -9.0507401
  -5.4837906 -10.4700720  -8.6607401 -10.1967906 -18.8220720 -16.7397401
 -10.5647906 -18.4520720 -17.5417401  -9.5377906 -18.1850720 -16.4617401
 -18.8167906 -11.5320720  -0.1497401 -18.1067906 -12.0750720  -0.4937401
 -18.6767906 -10.6730720  -0.5487401  -9.2077906 -11.8710720 -16.2177401
  -8.7307906 -12.6180720 -15.8577401  -8.5917906 -11.1400720 -16.1547401
 -12.1317906 -10.2790720 -18.9107401 -11.8497906  -9.5990720 -19.5227401
 -12.2187906  -9.8250720 -18.0717401 -16.6147906   7.2219280 -11.9937401
 -17.1897906   7.7579280 -11.4487401 -15.8737906   7.7929280 -12.1967401
  -7.1737906 -14.9520720 -10.3987401  -7.1927906 -14.9520720  -9.4417401
  -6.2717906 -14.7180720 -10.6197401  -6.6497906  -1.2360720  -9.5447401
  -6.9157906  -1.4600720 -10.4357401  -7.0177906  -1.9330720  -9.0017401
  -3.9757906  -1.8750720  -5.6967401  -3.1597906  -1.7560720  -5.2117401
  -3.7697906  -1.5930720  -6.5877401 -15.4557906  -6.6160720  -5.2797401
 -16.0717906  -6.9030720  -4.6057401 -15.1007906  -7.4290720  -5.6407401
  -0.6537906  -9.5830720 -10.6917401  -0.6097906  -8.6320720 -10.7837401
   0.0052094  -9.9150720 -11.3017401 -21.2367906 -19.7270720  -7.0067401
 -21.1427906 -20.1660720  -7.8517401 -21.0317906 -18.8100720  -7.1877401
 -13.0147906  -8.0010720   1.3162599 -12.9007906  -8.9510720   1.3042599
 -12.5877906  -7.6980720   0.5142599 -16.9347906 -10.4300720   8.9672599
 -16.1277906 -10.3550720   9.4752599 -17.6167906 -10.5880720   9.6202599
 -10.1817906  -8.4180720  -5.0517401 -10.5497906  -8.2260720  -5.9147401
  -9.8307906  -9.3050720  -5.1327401 -12.6697906 -13.0200720 -16.4397401
 -12.0127906 -12.9590720 -17.1327401 -12.2187906 -12.7110720 -15.6537401
 -18.1057906  -6.1440720   3.7422599 -18.2487906  -5.6640720   2.9262599
 -17.8417906  -5.4730720   4.3712599 -19.8977906  -5.1090720  -5.0227401
 -19.2847906  -4.4590720  -4.6807401 -20.5677906  -5.1890720  -4.3437401
 -12.8397906 -19.9430720 -10.2197401 -11.9267906 -19.7800720 -10.4567401
 -12.7967906 -20.3090720  -9.3367401 -10.2967906 -12.1720720 -12.3417401
  -9.8887906 -12.6080720 -13.0907401 -10.1947906 -12.7910720 -11.6187401
  -2.1307906  -7.0090720  -8.5277401  -2.3427906  -6.5920720  -7.6927401
  -2.9817906  -7.2080720  -8.9187401  -4.5617906 -10.7510720   8.2112599
  -4.8727906 -10.6910720   7.3082599  -3.6137906 -10.6370720   8.1472599
 -17.7467906  -9.3660720  -1.2407401 -16.9807906  -9.8480720  -1.5527401
 -18.1237906  -8.9780720  -2.0307401 -18.3427906 -14.5730720   1.7092599
 -18.4367906 -14.8470720   0.7962599 -18.3527906 -13.6170720   1.6752599
  -6.0137906 -12.7270720   2.5272599  -6.6867906 -13.3010720   2.1612599
  -5.4287906 -13.3160720   3.0032599  -5.4787906 -20.2490720  -2.0137401
  -5.6667906 -19.3990720  -1.6157401  -6.2207906 -20.8000720  -1.7657401
 -18.4557906   3.0849280  -6.2527401 -17.6307906   3.5169280  -6.4757401
 -18.9387906   3.7359280  -5.7447401 -16.7267906  -6.7060720  -7.9427401
 -17.3457906  -6.1870720  -8.4557401 -16.8167906  -6.3720720  -7.0497401
  -9.3717906  -5.3910720 -10.8817401  -9.4337906  -5.6230720 -11.8077401
 -10.0327906  -4.7100720 -10.7597401 -14.3107906 -17.4260720 -10.7737401
 -13.9497906 -17.1100720 -11.6017401 -13.8317906 -18.2360720 -10.5967401
 -13.5907906   8.3939280   0.1682599 -13.6917906   7.7549280  -0.5367401
 -13.0397906   9.0809280  -0.2077401 -16.9147906   4.6089280  -3.6017401
 -17.8357906   4.8369280  -3.7267401 -16.5567906   4.5629280  -4.4877401
 -18.6407906 -13.5240720 -12.8277401 -19.2127906 -13.2330720 -12.1177401
 -18.4897906 -12.7380720 -13.3527401  -1.8817906 -13.4420720  -1.5327401
  -2.3227906 -13.1240720  -0.7447401  -1.5167906 -12.6550720  -1.9377401
 -19.2657906   7.6309280  -4.9977401 -19.3597906   7.1669280  -5.8297401
 -18.7347906   8.3989280  -5.2097401 -15.1667906  -5.9750720 -18.8247401
 -14.6747906  -6.6580720 -18.3697401 -14.6627906  -5.1750720 -18.6747401
 -13.0407906 -18.6800720 -13.7447401 -12.1917906 -18.8290720 -13.3267401
 -13.0127906 -19.2090720 -14.5417401 -13.7867906  -5.1650720  -3.7757401
 -14.0837906  -5.5540720  -2.9537401 -14.4097906  -5.4830720  -4.4297401
  -9.8207906 -15.4850720   1.5192599  -9.5457906 -14.5710720   1.4482599
  -9.3577906 -15.8150720   2.2892599  -8.8207906 -11.5450720   9.7102599
  -8.0937906 -12.1050720   9.9822599  -8.4587906 -11.0100720   9.0032599
  -7.8057906 -14.4470720   8.6622599  -7.5807906 -14.5220720   9.5892599
  -8.6627906 -14.8670720   8.5882599  -3.0367906  -4.5430720 -12.5927401
  -3.1867906  -3.7680720 -13.1327401  -3.6827906  -4.4750720 -11.8897401
   2.1142094  -6.2440720  -9.7987401   2.5032094  -6.9770720  -9.3207401
   2.5152094  -6.2830720 -10.6667401 -17.0707906 -10.0140720  -7.0997401
 -17.3027906  -9.7950720  -6.1967401 -16.2277906  -9.5840720  -7.2407401
   6.2582094 -19.1960720  -5.8057401   6.3772094 -18.8410720  -4.9247401
   7.1472094 -19.3370720  -6.1307401  -7.4657906 -13.7020720  -5.8157401
  -7.3067906 -14.4220720  -6.4257401  -6.5927906 -13.4360720  -5.5267401
  -8.8707906   6.1829280  -8.1807401  -9.2007906   6.0729280  -7.2887401
  -9.5997906   6.5789280  -8.6587401 -21.6127906  -3.7520720  10.0632599
 -20.9077906  -3.4660720  10.6432599 -21.1657906  -4.1940720   9.3422599
 -20.3367906  -8.1310720  -7.8687401 -19.8457906  -8.2460720  -7.0547401
 -20.4197906  -7.1820720  -7.9657401 -18.7317906 -10.5920720  -9.1947401
 -19.4547906  -9.9810720  -9.0577401 -18.1257906 -10.4120720  -8.4747401
 -20.3427906 -19.2950720  -9.8997401 -20.8917906 -18.5570720 -10.1667401
 -20.9307906 -20.0500720  -9.9187401 -19.7927906  -5.4740720  -7.7897401
 -19.8377906  -5.4040720  -6.8357401 -19.7037906  -4.5700720  -8.0927401
 -10.2387906  -7.3730720  -2.6447401 -10.1247906  -7.8190720  -3.4847401
  -9.4197906  -6.8950720  -2.5137401  -7.1017906  -9.5010720   8.6392599
  -6.2647906  -9.9610720   8.7122599  -6.8997906  -8.5970720   8.8812599
 -13.3177906  -5.6330720 -15.5117401 -13.0467906  -5.7650720 -14.6027401
 -12.9067906  -4.8070720 -15.7667401 -14.7677906  -3.2800720  -2.1157401
 -14.9997906  -3.9870720  -1.5137401 -14.5707906  -3.7230720  -2.9407401
 -14.7927906 -20.5130720  -5.3227401 -14.6257906 -19.7600720  -5.8897401
 -14.2277906 -20.3700720  -4.5617401 -10.4827906   1.8749280 -15.3537401
 -11.2417906   1.3589280 -15.6247401  -9.7377906   1.4419280 -15.7697401
 -18.9567906   6.7029280 -13.2757401 -19.2797906   7.5579280 -13.5607401
 -18.0727906   6.8749280 -12.9537401 -20.6897906   0.5669280  -1.5257401
 -19.9707906   0.2449280  -2.0677401 -20.5057906   1.4989280  -1.4107401
  -3.8217906 -13.2170720 -13.4167401  -2.9037906 -13.1860720 -13.1457401
  -3.9677906 -14.1290720 -13.6657401 -17.0097906  -5.4860720 -15.0737401
 -16.2177906  -5.9220720 -15.3877401 -17.1947906  -5.9030720 -14.2317401
  -7.1777906  -9.9130720 -15.6627401  -6.3577906 -10.3900720 -15.5397401
  -7.3487906  -9.5050720 -14.8127401  -9.1917906  -6.5060720  -8.1297401
  -9.9767906  -6.1940720  -7.6797401  -9.3117906  -6.2330720  -9.0387401
 -16.0777906 -11.1550720  -2.4737401 -15.1417906 -11.3520720  -2.5117401
 -16.4817906 -11.9660720  -2.1647401 -13.7107906  -1.8340720   2.7142599
 -12.9457906  -2.1680720   2.2442599 -13.4657906  -0.9440720   2.9692599
 -13.9247906  -1.1480720 -17.7867401 -14.5297906  -1.7860720 -17.4087401
 -14.0407906  -0.3620720 -17.2527401  -9.3687906 -21.0000720 -14.2607401
  -8.5517906 -21.0210720 -13.7637401  -9.0947906 -21.0540720 -15.1767401
 -14.6817906  -4.2420720  -9.7017401 -14.7007906  -3.3240720  -9.9747401
 -14.8157906  -4.2130720  -8.7547401 -10.9517906 -12.6930720 -18.5677401
 -11.3397906 -11.8620720 -18.8397401 -10.0077906 -12.5380720 -18.5937401
  -8.7577906  -0.8580720   0.4792599  -9.6307906  -1.0440720   0.8232599
  -8.6987906  -1.3830720  -0.3197401 -14.0307906  -6.7370720  -8.8737401
 -14.9137906  -6.8920720  -8.5367401 -14.0827906  -5.8780720  -9.2937401
  -8.0807906 -16.5340720 -12.6497401  -7.5247906 -17.3100720 -12.7187401
  -7.5447906 -15.8950720 -12.1797401  -8.0107906  -6.0710720  -2.5247401
  -7.8997906  -5.2630720  -3.0257401  -7.1397906  -6.2580720  -2.1747401
 -15.0847906  -8.3120720   7.3822599 -15.3127906  -8.8290720   8.1552599
 -14.3867906  -7.7290720   7.6792599   4.6402094  -9.0830720  -6.7347401
   4.1552094  -9.9030720  -6.6477401   5.5032094  -9.3470720  -7.0537401
  -3.0087906 -10.6110720 -10.5667401  -2.1057906 -10.3020720 -10.6447401
  -3.5237906  -9.9750720 -11.0637401  -9.1367906  -9.5240720 -11.0747401
  -9.8547906  -9.1170720 -10.5887401  -9.4217906 -10.4270720 -11.2117401
 -18.3807906 -21.5940720 -10.2337401 -17.8587906 -21.2350720  -9.5167401
 -19.1047906 -20.9760720 -10.3367401 -19.6147906  -6.2770720 -11.3907401
 -20.2127906  -6.1500720 -12.1267401 -20.0867906  -6.8570720 -10.7947401
  -9.3207906 -11.3160720  -3.9647401  -8.6947906 -10.6020720  -3.8447401
  -8.8017906 -12.0290720  -4.3397401   5.9892094 -14.8120720  -4.2687401
   5.7822094 -15.2240720  -5.1067401   5.1652094 -14.4130720  -3.9877401
 -16.4617906  -9.0340720   1.4162599 -17.0487906  -8.9280720   0.6672599
 -16.0047906  -8.1960720   1.4832599 -20.6187906 -19.1310720  -4.3657401
 -20.8267906 -19.5490720  -5.2017401 -20.0537906 -18.3940720  -4.6007401
  -2.4587906 -20.3720720  -4.9917401  -1.5677906 -20.4990720  -5.3177401
  -2.4847906 -19.4550720  -4.7167401  -9.8597906  -3.3730720 -14.6747401
  -9.9867906  -3.0860720 -13.7707401  -8.9267906  -3.2370720 -14.8407401
 -11.6047906  -8.3330720  -9.7547401 -11.3197906  -8.3780720  -8.8427401
 -12.3437906  -7.7250720  -9.7457401 -17.5237906  -4.9670720 -18.1417401
 -16.6147906  -5.1630720 -17.9127401 -17.7177906  -5.5530720 -18.8727401
 -16.8517906 -20.2680720  -8.5467401 -16.1037906 -19.6730720  -8.5027401
 -17.6107906 -19.7140720  -8.3627401  -8.7757906 -12.2620720  -9.3537401
  -9.7267906 -12.3360720  -9.4357401  -8.4357906 -13.0450720  -9.7877401
  -8.9717906  -5.5710720   0.5292599  -9.4297906  -5.9580720  -0.2167401
  -8.6597906  -4.7250720   0.2052599  -4.8867906  -7.6690720  -5.2457401
  -5.8397906  -7.6490720  -5.1657401  -4.5677906  -7.4200720  -4.3777401
  -4.8487906 -16.7860720 -19.0517401  -5.7607906 -16.5180720 -18.9357401
  -4.6147906 -17.2050720 -18.2227401 -16.7307906  -9.8080720 -16.2597401
 -17.5507906  -9.3150720 -16.2967401 -16.0927906  -9.1860720 -15.9107401
  -2.0277906  -9.6040720  -1.7847401  -1.4817906 -10.3170720  -2.1157401
  -1.9017906  -8.8930720  -2.4137401  -6.7167906 -10.8170720  -9.8037401
  -7.5057906 -11.2060720  -9.4267401  -6.4797906 -11.4020720 -10.5227401
 -10.9327906  -9.6230720 -16.2457401 -11.2167906  -9.6010720 -15.3327401
 -10.5287906 -10.4840720 -16.3517401 -12.2097906  -3.3870720  -7.0677401
 -13.1417906  -3.5500720  -6.9247401 -12.1287906  -2.4330720  -7.0627401
  -6.0107906  -0.9970720  -3.4167401  -5.2717906  -1.5910720  -3.5477401
  -6.0927906  -0.5280720  -4.2477401 -16.4307906 -17.6860720 -13.1077401
 -15.9887906 -17.4030720 -12.3077401 -16.0357906 -17.1560720 -13.8007401
  -4.9907906 -10.8930720   5.3282599  -5.7617906 -11.3560720   5.0002599
  -4.2537906 -11.3090720   4.8822599  -1.8197906  -4.7470720 -17.8997401
  -1.4627906  -3.8730720 -18.0587401  -2.4077906  -4.6340720 -17.1537401
   5.6692094 -10.6290720  -9.7447401   6.0832094 -10.3890720  -8.9157401
   6.0892094 -10.0660720 -10.3947401  -7.9137906   5.0049280 -10.5187401
  -7.9767906   5.2609280  -9.5977401  -7.9657906   4.0489280 -10.5057401
 -16.3807906 -12.3230720  -9.7177401 -17.1587906 -11.7680720  -9.7747401
 -16.6197906 -13.1210720 -10.1897401  -4.8387906 -11.3680720 -15.0457401
  -4.2487906 -10.6240720 -14.9207401  -4.5867906 -11.9910720 -14.3647401
  -8.2487906 -10.2320720  -6.8807401  -7.4997906  -9.6420720  -6.9697401
  -7.9707906 -11.0390720  -7.3147401 -16.9177906  -2.2150720  -8.8887401
 -17.5807906  -1.9700720  -8.2437401 -17.3897906  -2.7510720  -9.5257401
 -12.2797906 -16.7270720  -8.3007401 -12.3657906 -16.0560720  -8.9787401
 -11.4327906 -16.5490720  -7.8927401 -14.4397906   1.8999280  -6.1997401
 -13.6487906   2.3699280  -6.4637401 -15.1587906   2.4339280  -6.5367401
 -14.8107906  -7.7630720 -15.0987401 -14.1287906  -7.1490720 -15.3697401
 -14.8867906  -7.6360720 -14.1527401 -14.2207906  -1.5560720  -7.7287401
 -15.1207906  -1.8810720  -7.7637401 -14.3117906  -0.6090720  -7.6207401
 -14.3067906   7.9859280 -14.6657401 -13.5527906   8.2519280 -15.1927401
 -14.1507906   8.3819280 -13.8087401 -18.7747906   5.6919280  -9.4327401
 -17.8397906   5.4839280  -9.4307401 -18.8127906   6.6229280  -9.6507401
  -4.9557906 -15.7670720 -13.0657401  -4.0387906 -15.9520720 -13.2677401
  -5.4447906 -16.1570720 -13.7897401   2.0082094 -14.1340720 -10.7757401
   2.1182094 -14.8330720 -11.4207401   2.6862094 -13.4960720 -10.9957401
 -13.1627906  -9.7220720 -11.5097401 -12.4087906  -9.2860720 -11.1127401
 -13.5347906 -10.2500720 -10.8037401  -4.9717906 -10.2310720   1.6872599
  -5.2347906 -11.0670720   2.0712599  -5.7887906  -9.7410720   1.5942599
  -6.4057906 -17.9350720  -0.3377401  -5.7027906 -17.2850720  -0.3407401
  -6.6157906 -18.0570720   0.5882599 -11.1677906 -13.4370720   4.2212599
 -10.8927906 -14.0700720   4.8852599 -10.8817906 -12.5910720   4.5652599
  -4.4737906 -12.9280720  -2.3697401  -4.6177906 -12.1130720  -1.8887401
  -3.5577906 -13.1480720  -2.2007401 -14.9887906 -11.8590720 -17.4837401
 -14.1137906 -12.1690720 -17.2517401 -15.4427906 -11.7700720 -16.6457401
 -15.3457906 -12.0100720   7.1032599 -15.7337906 -11.4130720   7.7432599
 -14.9437906 -11.4360720   6.4522599  -9.3247906 -13.2040720  -1.6037401
 -10.2407906 -13.0910720  -1.3477401  -9.0947906 -12.3840720  -2.0407401
   4.3202094  -8.0740720 -12.8097401   3.4002094  -7.8400720 -12.9317401
   4.7182094  -7.2900720 -12.4317401 -17.4207906 -11.7270720   2.1582599
 -18.3247906 -11.4800720   2.3522599 -16.9307906 -10.9070720   2.2132599
  -7.1137906  -7.9180720   2.1232599  -7.8837906  -7.3520720   2.0672599
  -7.0677906  -8.1700720   3.0452599 -17.4367906 -15.7130720 -14.8457401
 -16.8747906 -14.9710720 -15.0687401 -17.6857906 -15.5600720 -13.9337401
  -6.6137906  -8.7800720   4.9412599  -5.8607906  -9.1830720   5.3732599
  -7.3047906  -9.4410720   4.9972599   0.7742094 -10.2880720 -16.0447401
  -0.1177906  -9.9420720 -16.0627401   1.2992094  -9.6200720 -16.4857401
 -14.9327906   4.4639280   4.3252599 -14.2837906   4.6659280   3.6512599
 -15.7397906   4.2969280   3.8382599  -7.8367906  -6.3990720   4.5692599
  -7.1817906  -5.8450720   4.1442599  -7.3257906  -7.0660720   5.0272599
  -2.6857906  -4.1500720  -2.1287401  -1.9557906  -3.5470720  -2.2677401
  -2.5477906  -4.4950720  -1.2467401  -5.0897906 -12.5490720  -4.8547401
  -4.6047906 -11.7240720  -4.8527401  -5.0497906 -12.8530720  -3.9477401
  -5.7537906 -17.2730720 -15.6917401  -5.4897906 -18.1360720 -15.3727401
  -6.4797906 -17.4510720 -16.2907401 -10.6697906  -8.5140720   4.0952599
 -10.0167906  -8.4070720   3.4032599 -10.9847906  -7.6270720   4.2672599
 -13.5127906 -16.8150720  -2.7067401 -14.3347906 -16.7980720  -3.1967401
 -13.7817906 -16.8540720  -1.7887401 -12.5277906 -11.6770720  -6.7877401
 -11.9717906 -12.4490720  -6.8957401 -12.6297906 -11.5860720  -5.8397401
 -11.2927906 -10.9090720   5.2472599 -11.0377906 -10.0760720   4.8492599
 -12.0587906 -11.1890720   4.7462599   6.0182094 -14.2920720 -17.0977401
   6.0572094 -14.5860720 -16.1877401   6.7272094 -14.7670720 -17.5327401
  -9.9807906 -15.4680720   6.4702599 -10.5907906 -14.7640720   6.6882599
 -10.5227906 -16.1320720   6.0442599  -0.7387906 -12.1770720  10.0982599
   0.1472094 -12.5370720  10.0452599  -1.3127906 -12.9320720   9.9732599
  -4.9757906 -15.7630720  -1.0337401  -4.0727906 -15.9440720  -1.2967401
  -5.0267906 -14.8080720  -0.9907401  -6.9167906  -2.1570720   5.4802599
  -7.2247906  -2.7260720   6.1852599  -5.9627906  -2.1740720   5.5572599
 -10.5027906  -3.7260720  -0.9107401 -11.2127906  -3.7770720  -1.5507401
  -9.8527906  -3.1540720  -1.3187401  -1.2357906 -11.4710720  -5.8277401
  -2.0107906 -11.0490720  -5.4567401  -1.1127906 -11.0450720  -6.6757401
 -19.7697906  -8.6910720   6.2232599 -19.2777906  -8.8390720   5.4162599
 -20.0807906  -9.5600720   6.4782599  -8.1327906   7.6749280   7.3152599
  -7.4397906   8.2079280   6.9242599  -8.4747906   8.2129280   8.0292599
 -17.1387906   2.0559280 -19.3037401 -16.7177906   2.3049280 -18.4807401
 -16.4287906   1.7009280 -19.8377401 -19.7847906  -3.2960720 -17.9527401
 -19.6557906  -2.3480720 -17.9237401 -18.9397906  -3.6450720 -18.2337401
 -17.1487906 -13.3890720  -1.1337401 -16.5497906 -13.6850720  -0.4477401
 -17.6237906 -14.1780720  -1.3937401 -16.9017906 -15.3000720   3.7902599
 -16.9487906 -16.2560720   3.7752599 -17.5547906 -15.0170720   3.1512599
 -19.2577906  -8.7820720 -16.1107401 -20.0907906  -9.1500720 -15.8137401
 -19.3507906  -7.8390720 -15.9747401 -10.7327906 -19.2760720   6.2692599
 -10.9177906 -19.2220720   7.2062599 -11.1377906 -18.4920720   5.8982599
 -19.3397906 -11.9610720   7.7612599 -19.1037906 -12.8470720   7.4872599
 -18.7147906 -11.7490720   8.4542599  -2.6967906 -17.7270720  -4.3587401
  -2.2047906 -17.0630720  -4.8417401  -3.5487906 -17.7580720  -4.7937401
 -13.6627906   8.1249280   3.1182599 -12.8777906   8.6699280   3.1682599
 -13.6447906   7.7579280   2.2342599 -12.5227906  -4.6420720   6.8502599
 -12.1997906  -5.1800720   6.1262599 -12.2777906  -3.7480720   6.6122599
 -17.1167906 -15.0030720   8.5792599 -16.5397906 -14.7800720   7.8492599
 -16.5827906 -14.8570720   9.3602599 -13.7897906 -11.4640720   4.0172599
 -14.4477906 -10.8710720   4.3802599 -14.2757906 -12.2600720   3.8012599
 -20.1767906 -12.3760720  -6.7307401 -20.6877906 -11.7550720  -6.2127401
 -20.8287906 -12.9570720  -7.1207401 -12.6927906 -19.8010720 -15.9737401
 -13.2427906 -19.7300720 -16.7547401 -11.8387906 -19.4700720 -16.2517401
  -7.2557906   3.9859280   6.9002599  -7.9907906   3.4329280   6.6362599
  -6.7227906   4.0699280   6.1092599 -15.6577906 -14.4240720   6.1552599
 -16.1387906 -14.5380720   5.3362599 -15.5387906 -13.4780720   6.2342599
  -8.5017906 -10.7440720   5.6142599  -9.3397906 -10.8780720   5.1722599
  -8.2027906 -11.6260720   5.8342599   1.9552094 -15.4940720  -2.2397401
   1.0162094 -15.5340720  -2.4217401   2.3692094 -15.8230720  -3.0377401
 -17.6557906 -10.0950720  -4.2677401 -18.4197906 -10.5150720  -3.8737401
 -16.9057906 -10.5410720  -3.8727401  -6.5077906  -3.7180720  -0.7357401
  -6.3427906  -3.0300720  -1.3817401  -6.1457906  -4.5100720  -1.1317401
 -11.3897906 -20.1500720   2.9782599 -11.0147906 -20.2690720   3.8512599
 -10.6397906 -19.9440720   2.4202599 -18.4387906 -19.5290720   3.2062599
 -17.7677906 -18.9770720   3.6092599 -19.0587906 -18.9100720   2.8222599
 -15.0107906  -5.0200720 -12.3217401 -15.1977906  -5.9500720 -12.1967401
 -14.9797906  -4.6590720 -11.4357401 -13.2667906  -6.7190720   8.6052599
 -12.8437906  -5.9540720   8.2142599 -13.7527906  -6.3690720   9.3522599
 -21.0377906 -20.9380720   9.5502599 -20.2377906 -20.4920720   9.8282599
 -21.7047906 -20.2510720   9.5422599 -10.0817906  -9.3500720  -0.4277401
 -10.5837906 -10.1400720  -0.6247401 -10.1607906  -8.8130720  -1.2167401
 -19.7737906   6.3919280   9.1842599 -19.5467906   6.1979280   8.2742599
 -19.9077906   7.3389280   9.2012599 -13.9897906  -2.2850720   9.4872599
 -13.7527906  -2.7990720  10.2592599 -14.5847906  -1.6130720   9.8192599
 -12.0007906 -17.0540720   5.3202599 -12.8997906 -16.9910720   5.6432599
 -12.0907906 -17.1000720   4.3682599 -14.6537906 -10.1560720  10.1312599
 -13.7057906 -10.0260720  10.1392599 -14.8227906 -10.7420720  10.8692599
 -15.4017906 -13.3170720   3.1532599 -15.8087906 -14.1750720   3.2712599
 -15.9147906 -12.9010720   2.4602599 -16.8537906 -19.0780720  10.2662599
 -17.4097906 -19.1500720  11.0412599 -17.3377906 -19.5360720   9.5792599
   6.1212094 -21.6590720   7.9822599   6.4912094 -20.9150720   8.4572599
   6.6462094 -21.7200720   7.1842599  -3.9857906 -18.0330720   2.9642599
  -3.9537906 -18.9470720   3.2482599  -3.4757906 -18.0160720   2.1542599
  -9.7787906  -7.1620720 -16.1447401  -9.3827906  -6.8870720 -16.9707401
 -10.2107906  -7.9910720 -16.3497401  -8.1547906 -19.9200720   4.9422599
  -7.5137906 -20.0130720   5.6472599  -8.9217906 -19.5340720   5.3652599
 -13.5927906 -10.7320720   1.4152599 -14.5167906 -10.5750720   1.2212599
 -13.5847906 -11.0200720   2.3282599 -14.6237906  -4.4110720   4.2042599
 -13.7437906  -4.4960720   4.5702599 -14.8377906  -3.4830720   4.3052599
 -15.6017906 -13.5580720 -13.9997401 -16.1707906 -12.8060720 -13.8347401
 -14.8437906 -13.4150720 -13.4337401   7.3032094 -13.3990720  -7.9637401
   7.3802094 -14.3130720  -8.2387401   6.4812094 -13.1000720  -8.3517401
  -1.7477906 -11.9240720 -17.3717401  -1.2797906 -12.5470720 -16.8167401
  -1.2677906 -11.9330720 -18.2007401 -17.9177906  -2.7110720 -12.8947401
 -17.5207906  -1.8660720 -12.6817401 -17.4037906  -3.0380720 -13.6327401
 -21.9347906   7.5689280 -18.1687401 -21.6347906   8.0809280 -18.9197401
 -21.7747906   6.6589280 -18.4187401 -15.9037906 -16.9940720  -3.9147401
 -16.3857906 -16.4420720  -4.5297401 -16.5307906 -17.1790720  -3.2157401
  -7.5617906 -13.2850720   5.9472599  -8.2757906 -13.9180720   6.0182599
  -7.0907906 -13.3600720   6.7772599  -6.6607906  -4.7290720 -12.4727401
  -7.3657906  -5.0230720 -13.0507401  -7.1027906  -4.4870720 -11.6587401
 -21.1957906 -11.9030720   5.8202599 -20.4867906 -12.0270720   6.4512599
 -20.7597906 -11.5960720   5.0262599  -7.3697906 -21.4030720  -6.1567401
  -6.7047906 -22.0530720  -5.9277401  -7.2247906 -20.6840720  -5.5427401
  -8.4167906  -3.3690720  -8.6457401  -8.4417906  -3.4210720  -7.6907401
  -8.5257906  -4.2750720  -8.9377401 -17.6977906 -17.5580720   7.4872599
 -18.6257906 -17.4230720   7.2962599 -17.4637906 -16.8340720   8.0672599
 -18.2447906  -8.8030720   3.9592599 -18.2857906  -7.8570720   4.1012599
 -17.9287906  -8.8960720   3.0602599  -1.2707906 -19.2850720   4.9202599
  -1.6177906 -19.4480720   4.0432599  -1.3697906 -20.1200720   5.3772599
  -8.1797906   1.5789280  -9.2197401  -7.9917906   2.0439280 -10.0357401
  -8.0567906   0.6549280  -9.4367401  -7.4967906  -9.5090720  -3.0517401
  -7.8777906  -8.7510720  -2.6077401  -6.6397906  -9.6220720  -2.6407401
 -13.0967906  -4.3000720 -18.7417401 -12.3317906  -4.6750720 -19.1777401
 -12.7347906  -3.8030720 -18.0077401 -13.1697906   6.2629280   5.5862599
 -13.3557906   6.0129280   4.6812599 -12.4227906   6.8579280   5.5222599
 -15.6017906  -9.7490720   5.0082599 -16.4427906  -9.4280720   4.6802599
 -15.2527906  -9.0230720   5.5242599 -22.6457906 -12.7560720   0.9852599
 -22.9297906 -13.5590720   1.4212599 -22.8317906 -12.0610720   1.6162599
 -11.4477906 -11.6340720  -0.6307401 -12.0617906 -12.2920720  -0.9557401
 -11.5997906 -11.6090720   0.3142599  -8.4257906  -0.6290720 -18.3347401
  -9.2957906  -0.3440720 -18.6137401  -7.9637906  -0.8230720 -19.1497401
 -12.0357906 -11.5970720  -4.0307401 -11.1027906 -11.4040720  -4.1247401
 -12.0657906 -12.3750720  -3.4747401 -19.2557906 -14.3730720   6.6582599
 -18.4557906 -14.8920720   6.7422599 -19.4017906 -14.3090720   5.7142599
  -2.9847906  -5.8150720  -6.2987401  -2.2257906  -5.8630720  -5.7177401
  -3.5187906  -6.5730720  -6.0597401 -21.8217906  -7.3840720  10.2532599
 -21.2737906  -6.6200720  10.0712599 -21.8637906  -7.4270720  11.2082599
 -11.4667906  -8.3700720   9.4982599 -12.1067906  -7.8230720   9.0432599
 -10.9087906  -8.7170720   8.8022599   5.6202094 -20.2470720  -1.6137401
   5.5632094 -21.1710720  -1.3697401   5.5662094 -19.7760720  -0.7817401
  -5.8497906  -4.9500720   3.2442599  -6.0057906  -4.0270720   3.4452599
  -4.9497906  -4.9760720   2.9202599   4.1172094  -9.6560720 -17.5247401
   4.1082094  -9.0810720 -16.7587401   4.8212094 -10.2800720 -17.3497401
  -6.9787906 -18.2530720 -17.8927401  -6.4197906 -19.0290720 -17.9307401
  -7.3237906 -18.1620720 -18.7807401 -21.9377906 -18.1460720   4.5742599
 -22.2567906 -19.0230720   4.3632599 -21.1747906 -18.0250720   4.0082599
  -8.9197906  -1.8440720  -2.1357401  -8.9927906  -1.0390720  -2.6487401
  -8.1077906  -2.2500720  -2.4407401 -12.2937906 -14.3860720  -3.4587401
 -12.2687906 -15.2400720  -3.0267401 -12.6717906 -14.5640720  -4.3197401
  -6.9017906   6.0809280   1.5442599  -7.3517906   5.3829280   1.0682599
  -7.5147906   6.3349280   2.2332599  -7.2547906 -17.3750720   6.7292599
  -7.9497906 -16.7170720   6.7402599  -7.0217906 -17.4630720   5.8052599
  -5.1757906   8.5099280   3.2652599  -5.3847906   7.8099280   2.6472599
  -5.5047906   8.1929280   4.1062599 -13.4347906 -13.4800720   8.8712599
 -14.0107906 -13.3870720   8.1122599 -12.6257906 -13.0380720   8.6142599
 -14.8657906 -14.4670720   0.3502599 -14.8887906 -15.4230720   0.3232599
 -14.0257906 -14.2580720   0.7602599  -5.9137906   8.3799280 -13.7077401
  -6.0627906   7.6449280 -13.1117401  -6.1967906   8.0559280 -14.5627401
 -12.9827906   5.6649280 -13.9847401 -13.8797906   5.8829280 -14.2387401
 -12.4447906   5.9789280 -14.7117401 -21.6907906 -15.5100720  -9.7447401
 -22.1637906 -15.2430720 -10.5327401 -20.8917906 -14.9830720  -9.7537401
 -11.6607906   1.3429280   1.3972599 -11.6277906   0.3949280   1.5202599
 -12.2917906   1.4709280   0.6882599 -11.7257906   4.1429280 -12.0607401
 -11.9187906   4.6249280 -11.2577401 -12.0527906   4.7059280 -12.7627401
 -20.1377906  -2.7810720  -8.4097401 -19.6287906  -2.2340720  -7.8117401
 -19.7577906  -2.6110720  -9.2717401  -8.8457906  -6.0320720 -13.5947401
  -8.6947906  -6.9700720 -13.7087401  -9.4297906  -5.7940720 -14.3147401
 -20.6447906 -16.8870720  -7.2957401 -21.1207906 -16.5460720  -8.0527401
 -20.9687906 -16.3730720  -6.5567401 -13.0907906   6.5059280 -10.7697401
 -13.3907906   6.4979280 -11.6777401 -13.6657906   7.1339280 -10.3327401
 -11.0847906  -1.1760720   1.8852599 -11.1917906  -2.0490720   1.5082599
 -10.4707906  -1.3010720   2.6102599  -8.9527906 -14.8250720 -16.9157401
  -9.7447906 -14.3620720 -17.1917401  -9.2617906 -15.4700720 -16.2797401
 -17.8127906   7.9559280  -1.1417401 -17.6787906   8.1049280  -0.2057401
 -18.1977906   8.7719280  -1.4617401 -12.3067906  -1.6970720 -13.2757401
 -12.9567906  -2.0500720 -13.8827401 -12.8177906  -1.1860720 -12.6477401
  -9.7217906 -16.4380720 -14.7217401  -9.1297906 -16.4470720 -13.9697401
 -10.4147906 -17.0560720 -14.4887401 -19.4857906   3.0409280  -0.0177401
 -18.6067906   2.6649280  -0.0627401 -19.3957906   3.9089280  -0.4107401
 -22.7747906  -0.0860720 -14.6867401 -21.8817906  -0.4090720 -14.8027401
 -23.3227906  -0.7270720 -15.1407401  -7.0517906   4.3179280 -14.6397401
  -7.1717906   3.5359280 -15.1797401  -7.8927906   4.4349280 -14.1967401
  -8.5947906  -1.2350720  -6.1947401  -8.3517906  -0.3480720  -6.4607401
  -7.7677906  -1.6450720  -5.9407401  -5.2047906  -0.0920720   2.0642599
  -5.6997906   0.6349280   2.4422599  -5.6077906  -0.8760720   2.4372599
  -9.9697906   3.4089280   2.5172599 -10.3247906   2.6899280   1.9942599
  -9.4857906   3.9449280   1.8892599 -18.1347906   0.9259280  -2.8007401
 -17.5357906   1.6719280  -2.7697401 -17.6017906   0.1799280  -2.5247401
 -17.0147906  -0.1670720 -12.6207401 -16.3587906   0.2159280 -12.0387401
 -17.8307906  -0.1290720 -12.1217401  -5.3277906   6.1079280 -11.6457401
  -6.1737906   5.7249280 -11.4157401  -4.9407906   5.4849280 -12.2607401
 -20.5027906  -2.7770720 -13.8617401 -21.1497906  -2.9380720 -13.1737401
 -19.6577906  -2.9120720 -13.4327401 -16.3167906  -2.6600720 -17.0057401
 -16.9087906  -2.0450720 -17.4387401 -16.8157906  -3.4750720 -16.9507401
 -16.9607906   5.8239280  10.5532599 -17.5567906   5.9869280   9.8212599
 -17.4507906   5.2449280  11.1372599  -6.3757906  -2.4970720   1.8572599
  -6.3087906  -3.2080720   1.2202599  -7.1187906  -1.9740720   1.5562599
 -15.5477906   1.5249280 -15.9937401 -15.2397906   2.2879280 -16.4817401
 -15.1667906   1.6279280 -15.1217401 -12.4367906   1.9139280  -2.2677401
 -13.1847906   1.6429280  -1.7357401 -12.2987906   1.1869280  -2.8757401
  -7.3677906   3.5369280  -5.3717401  -6.5667906   3.6469280  -5.8837401
  -7.7317906   2.7039280  -5.6717401 -13.6457906 -16.1260720 -13.6377401
 -13.9617906 -15.8930720 -14.5107401 -13.3937906 -17.0460720 -13.7107401
 -18.5397906  -1.4170720  -6.8167401 -18.9687906  -0.6080720  -6.5397401
 -17.7787906  -1.4940720  -6.2407401 -19.5657906  -6.0800720 -16.1757401
 -19.1767906  -5.4220720 -16.7517401 -19.0127906  -6.0720720 -15.3947401
 -18.6337906  -3.7830720 -10.4567401 -18.5817906  -3.4020720 -11.3327401
 -19.2207906  -4.5320720 -10.5547401 -11.6487906   7.7989280  -5.2867401
 -10.8527906   7.4579280  -4.8787401 -11.9837906   8.4419280  -4.6607401
 -11.5417906   7.8599280 -18.6317401 -11.6687906   7.5369280 -19.5237401
 -12.0867906   8.6459280 -18.5817401 -12.6487906  -7.2280720  -1.4527401
 -13.1067906  -8.0650720  -1.5327401 -11.8757906  -7.3230720  -2.0087401
 -16.1077906   3.3029280 -12.3617401 -15.4987906   2.8199280 -12.9197401
 -16.7607906   3.6549280 -12.9667401 -22.0317906  -3.7860720 -16.3157401
 -21.4377906  -3.7310720 -15.5667401 -21.5067906  -3.4950720 -17.0607401
 -15.8997906   4.4919280  -6.3687401 -16.0517906   5.4279280  -6.2407401
 -14.9517906   4.3899280  -6.2847401 -12.8437906   3.9409280  -7.8707401
 -12.7517906   4.6399280  -7.2227401 -13.2817906   4.3589280  -8.6127401
  -9.9567906 -19.5120720  -9.7777401  -9.1787906 -20.0080720  -9.5217401
 -10.1737906 -18.9900720  -9.0057401 -11.9067906   0.7079280 -17.4407401
 -11.9417906  -0.1760720 -17.8067401 -12.3787906   1.2489280 -18.0737401
 -22.1977906  -6.8210720 -16.9527401 -22.8267906  -6.1100720 -16.8337401
 -21.3467906  -6.4210720 -16.7757401  -6.9597906   2.3189280 -11.4467401
  -6.8987906   2.2089280 -12.3957401  -6.0557906   2.4459280 -11.1607401
 -15.1347906  -5.9270720  -1.1587401 -15.4317906  -5.9580720  -0.2497401
 -14.3577906  -6.4860720  -1.1777401 -18.4477906   0.9979280  -8.4807401
 -18.9867906   1.4479280  -7.8297401 -17.7567906   1.6249280  -8.6947401
 -11.1827906   1.6949280  -8.1607401 -10.8987906   1.6889280  -9.0747401
 -11.8627906   2.3679280  -8.1247401 -19.5047906   0.7849280  -5.2117401
 -19.1677906   1.5409280  -5.6927401 -18.9947906   0.7679280  -4.4017401
  -2.7267906 -18.5320720 -17.9677401  -2.3797906 -19.2160720 -18.5407401
  -3.5877906 -18.8560720 -17.7027401   5.3642094 -19.1420720   0.7652599
   4.5622094 -19.3550720   1.2432599   5.6162094 -18.2780720   1.0902599
  -3.5917906   7.3379280 -10.0787401  -4.1307906   7.7259280  -9.3897401
  -4.2147906   7.0979280 -10.7647401 -21.8207906 -21.5690720   6.3512599
 -21.0357906 -21.4980720   5.8082599 -21.5707906 -21.1750720   7.1872599
 -22.0307906  -4.8770720  -3.4687401 -22.6347906  -5.3110720  -2.8657401
 -22.5057906  -4.1020720  -3.7677401 -16.0737906   2.6139280  -9.4007401
 -15.9737906   3.5219280  -9.1157401 -15.9437906   2.6439280 -10.3487401
 -12.3797906 -20.1200720  -3.6637401 -12.2137906 -20.0920720  -2.7207401
 -12.1047906 -19.2600720  -3.9807401 -11.5037906  -2.3440720   5.9542599
 -10.7727906  -2.2330720   5.3462599 -11.3327906  -1.7120720   6.6522599
 -19.4817906  -2.1910720  -1.1847401 -20.3707906  -1.9980720  -0.8857401
 -18.9177906  -1.8870720  -0.4747401   3.5252094 -13.0430720  -4.6787401
   3.1192094 -12.1760720  -4.6587401   2.7872094 -13.6530720  -4.6857401
 -19.7067906   0.3819280 -11.2057401 -19.3937906   1.1389280 -10.7097401
 -20.6607906   0.4589280 -11.1847401  -7.3757906   1.6899280   0.6232599
  -6.8067906   1.5479280  -0.1327401  -7.8117906   0.8489280   0.7572599
 -15.7507906  -0.1140720 -10.1087401 -15.5497906   0.6479280  -9.5647401
 -16.2637906  -0.6870720  -9.5387401 -10.7467906   7.3229280  -9.6817401
 -11.5847906   6.9749280  -9.9877401 -10.2917906   7.5889280 -10.4807401
 -11.5427906   4.5309280  -2.8597401 -10.9187906   4.4609280  -3.5817401
 -11.5427906   3.6619280  -2.4567401 -11.9467906  -3.0920720 -16.6217401
 -12.1407906  -2.1600720 -16.5167401 -11.2507906  -3.2650720 -15.9867401
  -9.1687906 -21.1210720 -17.5387401  -9.9497906 -21.3440720 -18.0447401
  -9.1637906 -20.1640720 -17.5127401 -19.6387906 -20.9810720 -14.8117401
 -18.6837906 -20.9140720 -14.8177401 -19.9347906 -20.1560720 -14.4277401
 -13.3917906  -0.1090720 -11.4117401 -13.9957906  -0.0820720 -10.6697401
 -12.6017906   0.3289280 -11.0937401 -13.0067906  -5.6880720   2.4082599
 -13.9167906  -5.4130720   2.5162599 -13.0637906  -6.5970720   2.1142599
 -14.8187906  -0.2420720  -4.7257401 -13.9207906  -0.2320720  -4.3947401
 -14.8347906   0.4379280  -5.3987401   2.6512094   3.6069280 -10.8027401
   1.7642094   3.8549280 -11.0617401   3.0882094   3.3859280 -11.6257401
 -14.5717906  -1.8390720   5.8772599 -14.7647906  -2.3790720   6.6442599
 -13.6167906  -1.8400720   5.8172599  -9.8617906 -20.2590720  -6.8507401
  -9.2387906 -20.9590720  -6.6537401 -10.7057906 -20.6000720  -6.5557401
   7.0302094   5.3319280 -10.4367401   6.4242094   4.6339280 -10.6897401
   7.6192094   4.9199280  -9.8047401  -9.5387906   4.4569280 -13.8217401
  -9.7347906   4.2909280 -12.8997401 -10.2997906   4.1199280 -14.2937401
  -8.8447906   1.6319280  -6.6347401  -9.7517906   1.5539280  -6.9327401
  -8.3377906   1.7479280  -7.4377401 -14.8467906   1.6369280   5.2142599
 -14.1817906   1.1369280   4.7412599 -14.8577906   2.4909280   4.7802599
 -15.6127906 -19.3790720   0.4112599 -15.0607906 -20.1450720   0.2542599
 -16.3637906 -19.7200720   0.8982599  -6.1467906  -9.2810720 -18.1887401
  -6.6687906  -8.5260720 -18.4617401  -6.5807906  -9.5990720 -17.3967401
 -11.3687906  -5.7000720   4.5582599 -10.7247906  -5.1750720   4.0822599
 -12.0267906  -5.9260720   3.9012599  -8.3117906  -8.7120720 -13.5137401
  -8.4397906  -8.8900720 -12.5817401  -9.1947906  -8.7230720 -13.8837401
 -11.9167906  -1.8140720  -9.4487401 -12.7087906  -1.7570720  -8.9147401
 -11.2027906  -1.6310720  -8.8377401  -3.7867906  -6.8660720 -13.7797401
  -3.6337906  -6.0230720 -13.3537401  -3.9907906  -7.4640720 -13.0607401
 -16.0437906   6.9089280  -5.1527401 -15.4527906   7.6419280  -4.9787401
 -16.8487906   7.1339280  -4.6867401   4.5402094 -21.2540720  -6.5527401
   4.6972094 -21.8910720  -5.8557401   5.1242094 -20.5240720  -6.3467401
 -10.6997906  -3.2150720 -11.6487401 -11.0677906  -2.9870720 -10.7947401
 -11.2477906  -2.7460720 -12.2787401   1.8502094  -1.9890720  -6.9007401
   2.0922094  -2.6980720  -6.3057401   1.3782094  -2.4230720  -7.6117401
 -21.3587906   8.1469280  -3.4927401 -21.3797906   9.0979280  -3.3817401
 -20.5277906   7.9759280  -3.9357401 -15.9797906  -1.0220720  -1.4957401
 -15.3617906  -1.7190720  -1.7147401 -16.5377906  -1.4000720  -0.8157401
   2.4072094  -6.6980720 -18.0327401   2.5052094  -7.4780720 -18.5797401
   1.6242094  -6.2630720 -18.3737401  -3.9447906   6.0459280 -16.0367401
  -3.0857906   5.7639280 -15.7237401  -4.5597906   5.7129280 -15.3837401
 -14.4547906 -17.3860720 -17.5257401 -14.3637906 -16.7430720 -16.8227401
 -15.2757906 -17.8400720 -17.3317401 -11.6107906   7.1989280 -15.9167401
 -11.6007906   8.0299280 -15.4407401 -11.2077906   7.4019280 -16.7617401
 -16.6797906   1.9419280   0.7142599 -16.4857906   1.7249280  -0.1977401
 -15.8527906   2.2779280   1.0622599 -12.6017906   6.8699280  -7.4237401
 -11.8047906   6.7319280  -7.9357401 -12.2897906   7.0399280  -6.5347401
 -21.1317906   6.8859280 -11.8037401 -20.4627906   6.3769280 -12.2597401
 -21.9167906   6.3399280 -11.8417401  -3.5027906   5.1129280  -5.3537401
  -3.2017906   5.3109280  -4.4667401  -3.4507906   4.1589280  -5.4177401
 -19.4587906   3.1449280 -10.3197401 -19.0567906   3.9809280 -10.0847401
 -20.2947906   3.3849280 -10.7207401 -21.3997906   5.1909280 -18.9897401
 -20.6237906   5.5039280 -19.4547401 -21.5777906   4.3319280 -19.3717401
  -0.4467906  -6.9340720 -10.6977401  -1.0727906  -6.8980720  -9.9747401
   0.3252094  -6.4720720 -10.3697401 -21.3007906  -2.5040720  -5.7797401
 -21.9907906  -2.1190720  -6.3197401 -20.8077906  -3.0610720  -6.3827401
 -18.8677906   5.3029280  -1.2397401 -19.0497906   5.2559280  -2.1777401
 -18.3597906   6.1079280  -1.1347401  -9.5327906   0.4879280  -3.7737401
 -10.4847906   0.3949280  -3.7487401  -9.2927906   0.2619280  -4.6717401
  -9.8567906  -0.1980720 -13.0217401  -9.3267906   0.2419280 -13.6867401
 -10.4097906  -0.8030720 -13.5167401 -19.3717906 -15.3830720 -17.4807401
 -18.8097906 -14.7160720 -17.8757401 -18.8367906 -15.7650720 -16.7847401
  -5.8007906   2.0339280 -19.2867401  -5.3457906   2.8039280 -18.9457401
  -6.6717906   2.3539280 -19.5227401 -15.6177906   0.9109280   8.7272599
 -16.2047906   0.8009280   7.9792599 -14.7387906   0.8359280   8.3542599
  -4.5537906  -8.9660720 -11.9497401  -5.1057906  -9.5940720 -12.4157401
  -5.1537906  -8.5140720 -11.3567401 -22.6757906 -18.0050720 -13.5487401
 -22.8207906 -18.9190720 -13.7907401 -22.7397906 -17.9970720 -12.5937401
  -2.9087906 -21.2730720   6.9292599  -3.5057906 -21.5110720   7.6382599
  -2.5167906 -20.4470720   7.2122599 -14.1167906 -16.6280720   6.8332599
 -14.2467906 -16.7290720   7.7762599 -14.8457906 -16.0770720   6.5472599
 -17.7577906 -20.5640720   8.2312599 -17.5757906 -19.7550720   7.7542599
 -17.8887906 -21.2210720   7.5472599 -18.0647906   4.8659280 -17.3047401
 -17.9817906   4.1449280 -16.6807401 -18.8847906   5.2969280 -17.0667401
 -13.5367906   4.8989280  -4.6827401 -13.0817906   4.6929280  -3.8667401
 -13.7037906   5.8409280  -4.6337401  -6.5567906   1.8849280   3.0722599
  -6.9077906   1.9889280   2.1882599  -7.3167906   1.9919280   3.6462599
 -15.8177906  -5.5690720   1.3482599 -16.3917906  -5.8270720   2.0702599
 -15.8187906  -4.6120720   1.3722599  -6.4017906   6.3669280  -3.3457401
  -6.0197906   6.8889280  -2.6417401  -5.8307906   6.5239280  -4.0987401
  -8.6707906   2.5949280   4.6982599  -9.1817906   1.8139280   4.9082599
  -9.2307906   3.0959280   4.1052599  -9.2747906  -4.5670720   2.9602599
  -8.7117906  -5.1770720   3.4372599  -9.3837906  -4.9660720   2.0972599
  -9.3297906  -2.0840720   4.1382599  -9.2107906  -2.8930720   3.6402599
  -8.6167906  -2.0870720   4.7762599 -17.2947906  -0.7000720 -18.7517401
 -18.1997906  -0.6610720 -19.0617401 -16.9437906   0.1729280 -18.9257401
 -18.8927906   2.1689280   8.5182599 -19.0377906   1.2329280   8.3782599
 -18.2057906   2.2089280   9.1832599  -8.1147906   4.2199280   0.2572599
  -7.9847906   4.2299280  -0.6917401  -8.1757906   3.2919280   0.4812599
 -11.1547906   7.9239280   5.7372599 -11.2927906   8.7119280   6.2632599
 -10.2187906   7.7409280   5.8202599 -17.1857906   3.9679280   2.6812599
 -16.6777906   4.3629280   1.9722599 -17.5457906   3.1669280   2.3012599
 -14.3527906 -19.0100720   5.5432599 -14.7207906 -19.7520720   6.0222599
 -14.3437906 -18.2950720   6.1792599 -19.2427906  -0.5910720   8.5452599
 -20.1167906  -0.7040720   8.1722599 -18.6487906  -0.9030720   7.8642599
 -12.1757906  -0.4890720  -3.6377401 -11.7617906  -1.2380720  -3.2097401
 -11.9237906  -0.5680720  -4.5577401 -15.0117906  -3.9570720   7.5802599
 -14.8617906  -3.4710720   8.3912599 -14.1417906  -4.2510720   7.3112599
  -8.2107906   7.2399280   4.1242599  -7.6637906   6.7989280   4.7752599
  -8.1637906   8.1659280   4.3592599 -14.8007906   4.0489280   9.7232599
 -15.4657906   4.4339280  10.2942599 -15.2437906   3.9319280   8.8832599
  -5.5767906   4.2759280   4.8442599  -4.8207906   4.1929280   4.2632599
  -6.1687906   3.5759280   4.5692599  -6.4297906   3.4639280  -2.8627401
  -6.8317906   3.4149280  -3.7297401  -6.1187906   4.3659280  -2.7927401
 -22.9147906   4.1279280   3.5692599 -23.0277906   3.3319280   4.0882599
 -21.9747906   4.1679280   3.3922599 -14.0797906   3.7219280 -16.6017401
 -13.3597906   3.7919280 -17.2277401 -14.5197906   4.5709280 -16.6467401
   3.9582094 -17.8990720   3.3412599   3.9602094 -18.7270720   3.8212599
   4.5422094 -17.3300720   3.8412599 -17.3267906  -4.5360720   6.0732599
 -17.4357906  -5.4430720   6.3612599 -16.4687906  -4.2790720   6.4112599
 -12.8937906 -18.0100720   2.4382599 -13.6977906 -18.1030720   2.9492599
 -12.3037906 -18.6740720   2.7942599 -11.4747906   7.3879280   8.5122599
 -12.4247906   7.3819280   8.3942599 -11.1217906   7.2329280   7.6362599
 -14.3287906  -8.9070720  -6.6107401 -14.0547906  -8.3530720  -7.3407401
 -13.5637906  -9.4510720  -6.4217401 -17.9437906   0.4419280 -14.8927401
 -17.3287906   0.7729280 -15.5477401 -17.4247906   0.3709280 -14.0907401
 -21.6287906   2.3039280 -17.1037401 -21.1087906   1.8079280 -17.7357401
 -21.1907906   2.1579280 -16.2657401 -21.5367906  -0.6430720   2.9402599
 -21.2867906  -1.3110720   2.3022599 -20.8507906   0.0209280   2.8742599
 -15.3997906   4.6379280   0.6712599 -15.3877906   5.0849280  -0.1747401
 -14.5707906   4.8829280   1.0832599 -11.9677906 -19.3730720   8.7432599
 -12.8477906 -19.5720720   8.4232599 -12.0917906 -19.1540720   9.6662599
 -20.9027906   4.4789280   7.0522599 -21.7827906   4.8169280   6.8902599
 -21.0027906   3.9029280   7.8102599   3.6882094   1.8459280 -15.4957401
   4.4552094   1.7319280 -16.0567401   3.3402094   2.7039280 -15.7367401
 -10.7057906   6.7729280   2.7662599  -9.9497906   6.7839280   3.3532599
 -10.8987906   7.6969280   2.6062599 -15.9077906   8.0949280   5.0162599
 -15.4077906   7.5609280   5.6332599 -15.2757906   8.3359280   4.3392599
  -6.9337906 -19.4600720   2.3132599  -7.2977906 -19.6080720   3.1862599
  -6.0297906 -19.7680720   2.3752599 -13.9177906   0.1069280   0.4712599
 -14.5817906   0.0269280  -0.2137401 -13.8267906  -0.7790720   0.8222599
  -3.4717906  -2.1650720   0.9512599  -3.7837906  -2.4520720   0.0932599
  -4.2687906  -1.9760720   1.4462599  -8.2777906 -18.2070720   9.3512599
  -8.6407906 -19.0760720   9.1752599  -7.7587906 -18.0030720   8.5732599
  -9.7477906 -20.0100720   0.6142599  -8.8477906 -19.9600720   0.9372599
  -9.8727906 -20.9330720   0.3942599 -14.5597906 -20.2970720   8.7572599
 -15.2167906 -20.1560720   9.4392599 -14.6237906 -21.2310720   8.5532599
 -12.6767906   0.4499280   3.7802599 -12.5167906   0.9349280   2.9702599
 -11.8167906   0.3849280   4.1952599  -4.3257906 -13.5360720 -17.7787401
  -3.6127906 -13.1820720 -17.2477401  -4.7617906 -12.7640720 -18.1407401
 -15.5337906   4.8469280   6.9092599 -16.4587906   4.7209280   6.6962599
 -15.0927906   4.8619280   6.0602599  -8.3597906  -0.6540720 -15.6077401
  -8.4447906  -0.7970720 -16.5507401  -7.7897906  -1.3620720 -15.3087401
 -15.6727906   5.9829280  -1.7017401 -15.9837906   5.7119280  -2.5657401
 -16.2717906   6.6819280  -1.4397401   2.2812094 -18.5510720   6.0182599
   1.9472094 -18.8700720   5.1802599   2.8242094 -19.2670720   6.3482599
  -7.0147906   7.1589280 -16.1327401  -7.1507906   6.2329280 -16.3327401
  -7.6827906   7.6159280 -16.6437401 -13.7267906 -20.3880720 -18.2107401
 -14.4107906 -21.0580720 -18.2347401 -14.1397906 -19.6100720 -18.5837401
 -14.7797906   7.6039280  -8.8487401 -14.2007906   7.2819280  -8.1587401
 -15.3017906   8.2849280  -8.4247401  -9.9797906  -4.7030720  -5.5207401
 -10.3477906  -5.5830720  -5.4487401 -10.6187906  -4.2180720  -6.0437401
 -14.3897906   7.0229280   8.4112599 -14.7157906   6.4389280   7.7262599
 -14.7917906   6.6959280   9.2162599  -9.6907906  -6.3290720   6.9732599
  -9.8127906  -7.2780720   6.9502599  -9.6097906  -6.0760720   6.0532599
 -17.3107906 -21.3880720   1.5112599 -17.6607906 -20.7610720   2.1442599
 -17.4487906 -22.2430720   1.9202599  -8.1417906 -13.7680720 -14.0307401
  -7.4497906 -13.8890720 -14.6807401  -8.4127906 -14.6570720 -13.8017401
 -10.5697906 -15.2180720 -11.5087401  -9.7487906 -15.6450720 -11.7517401
 -11.2357906 -15.6620720 -12.0337401 -12.0387906 -15.3530720  10.5802599
 -11.6917906 -14.6750720  11.1592599 -12.6587906 -14.8920720  10.0142599
   2.1482094  -6.4470720 -12.9707401   1.2592094  -6.2200720 -13.2447401
   2.6792094  -5.6940720 -13.2287401  -3.4357906 -14.0180720  -6.5937401
  -3.2487906 -13.5850720  -7.4267401  -3.8327906 -13.3360720  -6.0517401
   0.6242094 -13.4640720  -4.7857401   0.2502094 -13.0960720  -5.5867401
   0.2582094 -14.3470720  -4.7337401   4.6662094 -17.5700720  -8.7327401
   4.5242094 -17.2700720  -9.6297401   4.9012094 -18.4940720  -8.8217401
   1.0292094 -13.6530720  -8.2527401   0.4522094 -13.0790720  -8.7557401
   1.6902094 -13.9400720  -8.8827401   1.3272094 -20.2140720  -8.4437401
   0.4112094 -20.0950720  -8.1937401   1.2972094 -20.8220720  -9.1817401
 -22.7517906 -14.8360720  -1.8027401 -22.0337906 -14.2320720  -1.6137401
 -23.0947906 -14.5430720  -2.6467401  -3.4247906  -9.5400720 -17.6777401
  -4.3677906  -9.4450720 -17.8127401  -3.2517906 -10.4670720 -17.8447401
  -4.1897906 -16.6740720  -6.8777401  -3.6197906 -17.0810720  -7.5307401
  -3.8157906 -15.8030720  -6.7417401   4.9482094 -18.7790720 -15.4367401
   5.4032094 -19.5460720 -15.7847401   4.2282094 -18.6290720 -16.0487401
  -6.9427906 -14.5470720 -18.7257401  -7.6097906 -14.7120720 -18.0587401
  -6.3557906 -13.9070720 -18.3247401   3.1272094 -16.1280720  -4.6177401
   3.3462094 -15.7250720  -5.4577401   2.9502094 -17.0440720  -4.8297401
   2.6382094 -14.5940720 -13.8867401   2.0732094 -15.3570720 -14.0077401
   2.9512094 -14.3850720 -14.7677401 -22.3497906   1.3269280  -6.1277401
 -22.5997906   0.4189280  -6.2977401 -21.4527906   1.2719280  -5.7987401
  -8.0147906 -10.3050720   1.1092599  -8.6917906  -9.8320720   0.6252599
  -7.4347906  -9.6190720   1.4422599  -6.1047906 -14.5580720 -15.4997401
  -5.6157906 -14.0490720 -16.1467401  -6.0277906 -15.4640720 -15.7997401
 -17.1967906 -17.6480720  -1.4237401 -16.6827906 -18.1490720  -0.7917401
 -17.7027906 -18.3080720  -1.8987401   2.4842094 -15.9470720   0.3532599
   3.3592094 -16.2820720   0.1572599   2.1092094 -15.7400720  -0.5027401
 -12.3047906 -14.4290720   1.5282599 -11.4647906 -14.7710720   1.2202599
 -12.1837906 -14.3090720   2.4702599 -17.3817906 -12.6390720  -6.0397401
 -18.2677906 -12.7200720  -5.6877401 -17.4057906 -11.8410720  -6.5687401
   6.7202094 -20.8640720 -16.0097401   7.3832094 -20.8010720 -16.6967401
   6.3302094 -21.7300720 -16.1317401  -3.6917906 -10.2430720  -5.5497401
  -4.0817906 -10.1650720  -6.4207401  -4.0497906  -9.5040720  -5.0587401
 -21.5697906   3.8179280  -8.2967401 -20.9287906   3.2349280  -8.7037401
 -22.3717906   3.2979280  -8.2487401 -22.2537906 -18.1270720 -17.2797401
 -21.9087906 -17.6220720 -18.0157401 -23.1927906 -18.1940720 -17.4537401
   2.6402094   1.4369280 -13.0387401   3.3512094   1.0279280 -12.5447401
   3.0132094   1.6009280 -13.9047401  -2.9837906  -9.4020720 -14.5457401
  -2.5247906  -9.2420720 -13.7217401  -3.2577906  -8.5340720 -14.8407401
  -4.7957906 -14.5570720   7.8332599  -5.4867906 -15.0030720   8.3222599
  -4.7127906 -15.0590720   7.0222599   2.7482094 -10.4320720  -3.9107401
   2.3062094 -10.9670720  -3.2517401   2.0462094  -9.9220720  -4.3157401
 -21.1167906  -7.0010720 -13.7317401 -21.7387906  -7.0510720 -14.4587401
 -21.0507906  -7.9000720 -13.4107401   3.9302094 -17.9500720  -1.5237401
   3.6532094 -17.4810720  -2.3107401   3.2342094 -18.5870720  -1.3657401
  -1.1867906  -2.0770720 -18.1827401  -0.4087906  -2.4810720 -17.7997401
  -1.4267906  -1.3850720 -17.5667401  -2.9167906 -13.7810720   9.8482599
  -3.3567906 -14.0460720   9.0402599  -3.5387906 -13.9950720  10.5422599
  -1.5457906 -20.8080720 -10.8027401  -1.4127906 -20.4640720  -9.9197401
  -2.2207906 -21.4790720 -10.6987401   1.3712094 -17.1340720   9.8892599
   1.1072094 -16.5420720   9.1852599   0.6222094 -17.1460720  10.4862599
   4.2082094 -20.9490720   3.9702599   3.2992094 -21.1910720   3.7912599
   4.6462094 -21.7800720   4.1542599   0.5502094 -16.5190720  -7.5707401
   0.9522094 -15.6830720  -7.8087401   1.2912094 -17.0990720  -7.3927401
   2.1632094 -20.5350720   0.7272599   1.8602094 -20.1670720  -0.1027401
   1.6632094 -20.0660720   1.3952599   3.5092094 -14.0710720   4.5562599
   3.4892094 -14.8110720   5.1622599   4.2922094 -13.5790720   4.8042599
 -22.6387906  -9.7310720  -7.7797401 -22.3717906  -9.9590720  -6.8897401
 -21.9127906  -9.2110720  -8.1227401   2.9242094  -2.4180720 -11.2057401
   2.0372094  -2.4360720 -10.8467401   3.3742094  -3.1400720 -10.7687401
  -6.1587906 -11.9950720 -12.2857401  -6.5267906 -12.4620720 -13.0367401
  -5.2547906 -12.3030720 -12.2307401  -4.4697906   4.1829280 -13.3427401
  -3.9467906   3.4359280 -13.6347401  -5.2157906   4.2019280 -13.9417401
 -18.0197906   4.2489280 -14.1377401 -18.4597906   5.0729280 -13.9257401
 -18.7327906   3.6309280 -14.2977401   0.4292094   1.6019280  -8.8937401
   0.1582094   2.1609280  -9.6227401  -0.2617906   0.9429280  -8.8287401
 -22.7817906 -15.2290720 -12.0967401 -23.3597906 -15.6700720 -12.7207401
 -22.1037906 -14.8270720 -12.6407401 -17.4017906 -19.9250720  -5.2847401
 -16.4597906 -20.0180720  -5.4317401 -17.6927906 -19.3190720  -5.9657401
  -1.8337906 -10.2130720   8.7182599  -1.3277906 -10.8250720   9.2522599
  -1.3407906 -10.1440720   7.9002599 -10.7717906 -17.7750720 -19.0767401
 -11.3637906 -17.0520720 -19.2837401 -10.0967906 -17.7340720 -19.7547401
   1.6472094 -19.4770720  -1.8197401   1.8852094 -19.3800720  -2.7417401
   1.1072094 -20.2670720  -1.7927401 -14.2627906 -17.1650720   0.0422599
 -13.6557906 -17.4680720   0.7182599 -14.9977906 -17.7770720   0.0892599
   4.8612094 -14.3340720   9.1072599   5.3802094 -13.5600720   8.8872599
   4.7012094 -14.7640720   8.2672599  -1.5787906 -19.8340720  -8.3357401
  -1.7557906 -19.8160720  -7.3957401  -1.7147906 -18.9310720  -8.6227401
  -0.6957906 -15.3400720  -2.9247401  -1.2367906 -14.7460720  -2.4047401
  -1.1317906 -15.3800720  -3.7757401  -5.7667906 -11.7870720  10.7092599
  -5.8797906 -10.8500720  10.8642599  -5.4527906 -11.8450720   9.8062599
   5.1822094 -20.0200720 -10.0897401   4.8562094 -20.7900720  -9.6247401
   4.7732094 -20.0700720 -10.9537401 -18.6277906  -2.3030720  -3.8237401
 -19.5377906  -2.1050720  -4.0447401 -18.5757906  -2.1710720  -2.8777401
   1.7762094  -8.7600720  -1.3267401   2.5182094  -9.2720720  -1.6497401
   2.1762094  -8.0450720  -0.8307401 -20.1167906 -17.4740720   2.4852599
 -20.5067906 -17.9770720   1.7702599 -19.8127906 -16.6660720   2.0702599
   0.1592094   8.2069280 -12.7057401  -0.4947906   8.5439280 -12.0937401
   0.8312094   7.8149280 -12.1467401   7.2192094 -12.2080720 -12.0387401
   6.2832094 -12.3100720 -11.8667401   7.3592094 -12.6530720 -12.8737401
 -10.6727906 -14.1080720  -7.1637401  -9.7327906 -14.1330720  -7.3427401
 -10.8457906 -14.9140720  -6.6777401  -0.5557906  -9.2020720  -7.9027401
  -1.0607906  -8.4100720  -8.0867401  -0.6047906  -9.7110720  -8.7117401
   5.1812094 -12.6290720  -0.6727401   6.0722094 -12.7770720  -0.3537401
   4.6292094 -13.1560720  -0.0947401 -20.1757906 -12.6370720 -10.7517401
 -19.7527906 -12.4350720  -9.9167401 -21.0417906 -12.2360720 -10.6847401
 -20.8457906 -13.3120720  -0.9587401 -19.9947906 -12.9080720  -0.7907401
 -21.4037906 -13.0020720  -0.2457401   4.6912094 -15.6060720  -6.7097401
   4.8222094 -16.4310720  -7.1777401   4.6202094 -14.9470720  -7.4007401
 -16.7467906 -18.0590720 -16.0507401 -17.0997906 -17.1950720 -15.8367401
 -17.4367906 -18.4780720 -16.5657401  -2.6497906 -18.3150720 -12.2117401
  -2.0237906 -18.8810720 -11.7587401  -3.3837906 -18.2340720 -11.6037401
  -5.9647906   8.0979280  -8.7657401  -6.4917906   7.5119280  -8.2227401
  -6.5337906   8.3209280  -9.5017401 -16.9257906 -11.2830720 -14.0217401
 -17.1767906 -10.7270720 -13.2837401 -16.9397906 -10.6980720 -14.7787401
  -0.7617906   6.2839280   1.9922599  -0.5207906   5.7489280   1.2362599
  -0.4047906   7.1509280   1.7962599  -6.8607906  -5.6190720 -18.7107401
  -7.7427906  -5.9570720 -18.5577401  -6.4217906  -6.3110720 -19.2057401
  -0.6477906 -13.7960720 -10.7507401   0.2662094 -14.0800720 -10.7827401
  -0.6847906 -13.0400720 -11.3367401   1.5742094 -10.6660720 -12.1477401
   1.8822094 -10.2190720 -11.3597401   2.2862094 -10.5580720 -12.7787401
  -5.6327906   2.9219280  -7.7917401  -5.6787906   2.5279280  -8.6627401
  -4.9357906   3.5749280  -7.8597401   4.2982094 -13.6410720  -8.6267401
   3.8572094 -12.9040720  -8.2037401   4.4732094 -13.3360720  -9.5177401
   1.6182094 -13.3310720 -19.2197401   2.1872094 -12.7310720 -19.7017401
   2.1372094 -13.5950720 -18.4597401  -2.3667906 -15.8390720 -13.4347401
  -2.1227906 -16.6250720 -12.9467401  -1.5317906 -15.4640720 -13.7177401
 -18.7137906  -4.3300720   1.5182599 -19.2547906  -3.9340720   0.8352599
 -18.0277906  -3.6830720   1.6862599   0.2282094   4.1349280 -11.6377401
  -0.5957906   4.5509280 -11.8907401   0.2462094   3.3159280 -12.1327401
  -7.7417906 -18.4540720  -7.4127401  -6.8817906 -18.8620720  -7.5157401
  -8.2357906 -19.0680720  -6.8687401 -21.5577906 -14.7530720  -5.2227401
 -22.4457906 -14.8260720  -4.8757401 -21.2647906 -13.8830720  -4.9527401
 -21.6087906  -3.2320720 -11.2267401 -21.0257906  -3.1040720 -10.4777401
 -22.3987906  -3.6220720 -10.8527401 -11.9617906  -3.5210720   1.1782599
 -11.2957906  -3.6870720   0.5112599 -12.1197906  -4.3760720   1.5782599
   2.5162094  -8.0610720  -7.8047401   2.2202094  -7.3330720  -7.2587401
   3.3062094  -8.3810720  -7.3687401   1.9752094 -19.4490720 -13.4867401
   1.3712094 -20.1920720 -13.4737401   2.8452094 -19.8480720 -13.4817401
  -3.3947906  -6.3960720  -3.2927401  -2.5797906  -6.8910720  -3.3797401
  -3.1127906  -5.5100720  -3.0647401   4.9532094  -7.9650720 -15.5387401
   4.9262094  -7.7220720 -14.6137401   5.0882094  -7.1370720 -16.0007401
 -17.6437906  -7.0450720  -3.0077401 -16.9717906  -7.1270720  -2.3317401
 -18.3927906  -6.6560720  -2.5567401   1.6922094 -17.7780720 -11.0487401
   1.8532094 -18.4380720 -11.7227401   2.5562094 -17.6010720 -10.6747401
   5.0792094  -5.6040720 -17.5717401   4.2502094  -6.0690720 -17.6907401
   5.4572094  -5.5600720 -18.4497401  -1.3917906 -15.6050720  -5.6597401
  -2.0677906 -15.1100720  -6.1227401  -0.7737906 -15.8640720  -6.3437401
 -18.4067906 -10.6940720 -18.3377401 -19.1127906 -10.1210720 -18.0387401
 -17.6887906 -10.5300720 -17.7257401  -4.8637906  -4.3890720  -8.0897401
  -4.9067906  -5.3250720  -8.2867401  -3.9947906  -4.2660720  -7.7057401
   2.6682094  -9.6000720  -9.9797401   2.3072094  -9.0520720  -9.2827401
   3.4672094  -9.9700720  -9.6047401   4.4252094 -16.5940720 -11.3247401
   4.5782094 -15.6730720 -11.1117401   4.7482094 -16.6890720 -12.2207401
   1.3262094 -12.5930720   4.9902599   0.6502094 -13.1340720   4.5832599
   2.1082094 -13.1450720   4.9902599  -6.0267906  -3.1430720 -17.7047401
  -6.0907906  -4.0340720 -18.0487401  -5.3997906  -2.7080720 -18.2817401
   0.4462094 -21.0950720  -5.1607401   0.8912094 -21.8020720  -5.6277401
   1.1362094 -20.4590720  -4.9737401 -14.2987906  -2.6390720 -14.6917401
 -14.3677906  -3.5690720 -14.4757401 -14.9387906  -2.5070720 -15.3907401
 -21.8977906  -9.3660720 -15.8727401 -22.0457906  -8.7040720 -16.5477401
 -22.5677906 -10.0300720 -16.0367401  -6.5507906 -15.9010720  -7.5807401
  -5.6567906 -16.2110720  -7.4407401  -7.0857906 -16.6940720  -7.5597401
   2.4482094 -19.0420720  -4.2357401   3.3472094 -19.3660720  -4.1717401
   2.3002094 -18.9290720  -5.1747401   3.2242094 -11.7940720  -6.9647401
   3.5402094 -12.4620720  -6.3557401   2.2872094 -11.7260720  -6.7807401
   0.2082094 -13.1300720 -15.8807401   0.4022094 -12.1940720 -15.9357401
   0.6252094 -13.4140720 -15.0667401  -4.4157906 -19.7970720 -14.8787401
  -4.6407906 -20.5320720 -14.3087401  -3.4597906 -19.7570720 -14.8517401
   5.1762094 -12.3510720   6.0332599   5.7672094 -12.3000720   6.7842599
   4.6632094 -11.5440720   6.0762599   6.5952094  -1.0990720  -6.9027401
   5.7032094  -1.0910720  -6.5557401   6.4832094  -1.1130720  -7.8527401
  -2.9027906 -13.1970720  -9.3197401  -2.9027906 -12.3130720  -9.6867401
  -2.1987906 -13.6490720  -9.7827401  -0.1207906 -10.1940720   6.7662599
  -0.0487906 -11.0080720   6.2672599   0.7712094 -10.0160720   7.0652599
  -0.4697906  -3.7410720  -5.6577401  -0.3337906  -3.0070720  -5.0597401
  -1.3167906  -3.5640720  -6.0677401 -21.8337906  -9.7800720 -12.9197401
 -22.0067906  -9.9950720 -13.8367401 -21.9747906 -10.6020720 -12.4497401
  -4.2677906 -15.3290720 -10.4397401  -4.1257906 -15.2590720 -11.3837401
  -3.9537906 -14.4970720 -10.0867401  -5.2297906 -19.4470720  -7.6867401
  -5.2767906 -19.6390720  -6.7497401  -5.3707906 -20.2920720  -8.1117401
   0.2752094 -15.5190720 -17.0997401   0.3052094 -14.6010720 -16.8307401
  -0.2357906 -15.5160720 -17.9087401  -3.3827906   7.4539280 -18.5167401
  -2.4257906   7.4459280 -18.5227401  -3.6227906   6.9339280 -17.7497401
   0.2802094 -16.9830720   7.2312599   0.9802094 -17.4110720   6.7392599
  -0.3567906 -16.7230720   6.5662599   7.1872094 -18.2520720 -10.6507401
   6.4752094 -18.8770720 -10.5137401   6.8112094 -17.4040720 -10.4167401
 -14.8897906 -20.6350720 -12.3247401 -14.4267906 -20.1600720 -11.6347401
 -15.2007906 -19.9520720 -12.9187401   3.2502094 -15.3620720 -16.5127401
   3.9632094 -15.0880720 -17.0897401   2.6632094 -15.8630720 -17.0787401
   2.5992094  -0.7490720 -17.8537401   2.6872094  -0.5640720 -18.7887401
   3.4112094  -1.1990720 -17.6207401   5.5532094 -16.0970720  -0.0847401
   5.9912094 -15.5710720  -0.7537401   5.2472094 -16.8740720  -0.5527401
  -9.1067906 -20.7560720   9.4082599 -10.0037906 -20.8890720   9.7132599
  -8.5677906 -20.8720720  10.1912599  -1.8707906 -17.1800720  -1.6307401
  -2.2307906 -17.6580720  -2.3777401  -1.2887906 -16.5280720  -2.0217401
  -3.2607906  -8.1090720   9.9342599  -3.1917906  -8.6310720  10.7342599
  -2.8737906  -8.6600720   9.2542599   6.5922094 -11.7870720 -18.1697401
   6.9702094 -11.9470720 -19.0337401   6.0752094 -12.5720720 -17.9847401
 -20.2097906  -5.1790720   8.2192599 -20.4437906  -5.5220720   7.3572599
 -19.2777906  -5.3790720   8.3122599 -21.8367906  -7.6410720   7.4102599
 -21.5347906  -7.5540720   8.3142599 -21.0687906  -7.9490720   6.9292599
   1.3002094 -19.8290720   8.7292599   1.9682094 -20.1340720   8.1152599
   1.5932094 -18.9550720   8.9872599  -1.0487906  -8.2030720 -17.0017401
  -1.0387906  -7.8570720 -17.8937401  -1.8567906  -8.7140720 -16.9517401
 -22.1297906 -17.0830720   7.1942599 -21.9907906 -17.2290720   6.2592599
 -21.9357906 -16.1550720   7.3242599   5.2182094   4.2059280 -19.1847401
   4.8392094   4.8199280 -19.8147401   5.9782094   4.6669280 -18.8297401
 -19.8957906 -11.3080720   3.5342599 -20.4867906 -10.7400720   3.0392599
 -19.3127906 -10.7040720   3.9942599  -1.6187906 -16.5640720   5.0222599
  -2.4627906 -16.3000720   5.3872599  -1.5567906 -17.5000720   5.2122599
   3.7312094 -15.9850720   6.5532599   3.0082094 -16.5980720   6.4202599
   4.5102094 -16.4700720   6.2802599   5.9472094   6.6199280 -16.3377401
   6.0632094   5.7209280 -16.0297401   6.6652094   6.7579280 -16.9547401
 -20.1637906 -14.4920720   3.9442599 -19.8967906 -13.6800720   3.5122599
 -20.7087906 -14.9400720   3.2962599  -0.3797906   2.9069280 -18.5667401
  -1.1557906   2.8349280 -18.0107401  -0.3067906   2.0509280 -18.9887401
   4.1962094 -13.8100720   1.5242599   4.3512094 -13.9970720   2.4502599
   3.3622094 -14.2390720   1.3302599 -19.5777906  -2.8660720   5.4052599
 -20.2027906  -3.5900720   5.4292599 -18.7297906  -3.2730720   5.5822599
 -17.6297906  -6.3190720   9.3452599 -17.5627906  -6.9180720   8.6022599
 -16.7217906  -6.1470720   9.5962599  -3.2557906  -2.3050720 -14.5937401
  -2.9847906  -3.0630720 -15.1107401  -3.2407906  -1.5750720 -15.2127401
   4.1272094 -10.9930720 -13.8377401   4.4842094 -10.1280720 -13.6397401
   4.7302094 -11.3590720 -14.4857401  -0.6257906 -14.2150720   3.8482599
  -0.1797906 -14.3340720   3.0102599  -0.8277906 -15.1040720   4.1412599
 -21.0987906 -16.8160720 -15.1587401 -21.4197906 -17.2330720 -15.9587401
 -21.7267906 -17.0750720 -14.4847401   3.8992094   7.3299280 -18.1617401
   4.7192094   6.9789280 -17.8147401   3.5192094   7.8189280 -17.4317401
 -16.6507906  -0.0330720   5.9932599 -16.1897906   0.7449280   5.6802599
 -16.0117906  -0.7410720   5.9072599   1.3632094  -3.0550720 -17.6197401
   1.7212094  -2.1900720 -17.8207401   2.0152094  -3.4570720 -17.0447401
   5.0762094 -18.6250720 -18.5967401   4.3262094 -19.1980720 -18.4357401
   4.7582094 -17.7480720 -18.3857401  -5.2237906 -15.6190720   2.4792599
  -4.8857906 -16.5130720   2.5292599  -4.5727906 -15.1440720   1.9622599
  -4.1797906 -17.7710720   8.3132599  -3.3667906 -18.2690720   8.2282599
  -4.2267906 -17.5440720   9.2422599  -2.7447906 -14.9620720   1.2912599
  -2.4017906 -15.8240720   1.0562599  -1.9657906 -14.4270720   1.4432599
   6.6012094 -18.3980720  -3.3137401   6.4242094 -19.1790720  -2.7887401
   6.0942094 -17.7050720  -2.8897401  -4.9327906 -13.9390720   4.7362599
  -5.0547906 -14.8880720   4.7062599  -5.7967906 -13.5930720   4.9622599
   7.0372094 -18.9700720   9.3222599   6.4992094 -18.6400720  10.0412599
   6.9072094 -18.3380720   8.6152599   1.1882094 -16.8570720 -14.3147401
   1.0722094 -17.0410720 -15.2467401   1.4352094 -17.6990720 -13.9327401
   5.8852094 -16.5830720   4.5872599   6.4162094 -15.8990720   4.9962599
   6.4582094 -17.3490720   4.5622599 -20.2957906 -17.7730720   9.6082599
 -20.4727906 -16.8340720   9.6512599 -20.8077906 -18.0810720   8.8602599
 -12.9227906  -9.7580720  -2.2067401 -12.6117906 -10.3400720  -1.5137401
 -12.6897906 -10.2080720  -3.0197401 -20.5587906  -5.6020720   5.3262599
 -21.3197906  -6.0950720   5.0212599 -19.8057906  -6.1120720   5.0272599
  -2.8097906 -12.3600720   4.0232599  -2.0117906 -12.8880720   4.0702599
  -3.5087906 -12.9590720   4.2872599   0.7932094  -8.8430720  -5.1927401
   0.4942094  -8.9360720  -6.0967401   1.0532094  -7.9250720  -5.1187401
   0.2842094 -14.4700720   1.3462599   0.7592094 -13.7740720   0.8922599
   0.7702094 -15.2680720   1.1362599 -22.6917906 -14.3900720   5.6502599
 -21.8117906 -14.2560720   5.2962599 -23.1347906 -13.5520720   5.5152599
  -1.5297906 -17.3510720  -9.1487401  -0.6417906 -17.1330720  -8.8657401
  -1.8557906 -16.5470720  -9.5547401 -17.5347906 -10.0080720 -11.8377401
 -17.9677906 -10.6410720 -11.2637401 -17.2377906  -9.3150720 -11.2487401
 -16.7607906 -15.5250720  -6.3957401 -16.0507906 -15.6380720  -7.0277401
 -16.8327906 -14.5780720  -6.2817401 -22.3037906 -11.7980720  -5.4877401
 -22.9857906 -11.7830720  -4.8157401 -22.5877906 -12.4750720  -6.1027401
  -0.8057906  -7.6170720  -3.2677401  -0.1647906  -8.1850720  -3.6957401
  -0.3227906  -7.2130720  -2.5467401 -19.6757906  -5.6550720  -1.9437401
 -19.5247906  -4.8280720  -1.4867401 -20.4887906  -5.5160720  -2.4297401
   1.3012094 -17.8480720   1.7372599   1.7752094 -17.0880720   1.3982599
   1.7292094 -18.0450720   2.5702599 -22.9387906 -12.3360720   8.0642599
 -22.3727906 -12.0670720   7.3402599 -22.3597906 -12.8150720   8.6572599
  -9.0707906 -15.1110720  -3.7467401  -8.5677906 -14.7160720  -4.4587401
  -9.3847906 -14.3660720  -3.2337401 -18.8987906  -7.2480720   0.7102599
 -19.4887906  -6.5180720   0.8952599 -18.9427906  -7.3570720  -0.2397401
  -3.4597906 -12.4690720   0.5792599  -3.8427906 -11.6660720   0.9322599
  -3.7007906 -13.1480720   1.2102599  -5.5967906 -19.3220720  -5.1227401
  -5.3557906 -19.8800720  -4.3827401  -5.8167906 -18.4790720  -4.7257401
 -17.3517906  -7.2470720   6.7512599 -17.9617906  -7.8820720   6.3742599
 -16.5447906  -7.7420720   6.8882599 -16.6367906 -17.9180720   4.4752599
 -15.7807906 -18.1300720   4.8482599 -17.1857906 -17.7190720   5.2332599
 -20.7587906  -9.0590720   2.2862599 -20.0347906  -8.5150720   1.9772599
 -21.4937906  -8.8250720   1.7202599   4.6612094 -13.2680720 -12.0087401
   4.2662094 -12.5080720 -12.4367401   4.6402094 -13.9550720 -12.6747401
 -18.1737906 -13.3580720 -19.0247401 -18.2627906 -12.4220720 -18.8457401
 -17.2327906 -13.5240720 -18.9697401 -19.2337906 -16.2700720  -4.6627401
 -18.5257906 -15.8170720  -5.1217401 -19.9657906 -15.6530720  -4.6817401
  -8.4447906 -12.9690720   1.1052599  -8.3857906 -12.0170720   1.1822599
  -8.4147906 -13.1360720   0.1632599 -20.3787906   7.8839280   1.9362599
 -21.0457906   7.1989280   1.9182599 -20.6687906   8.5189280   1.2812599
 -21.1027906 -17.0050720  -2.0237401 -21.5447906 -17.4510720  -2.7467401
 -21.7317906 -16.3470720  -1.7277401 -19.0267906 -18.4250720 -13.8447401
 -18.0727906 -18.3480720 -13.8117401 -19.3097906 -17.6800720 -14.3747401
  -0.5027906 -11.2080720   2.3782599  -1.0917906 -10.4580720   2.2882599
  -1.0497906 -11.8980720   2.7552599  -4.2967906   4.1369280 -18.6687401
  -4.1997906   5.0389280 -18.3627401  -3.6157906   4.0359280 -19.3347401
   1.5072094  -6.2460720  -5.9527401   0.9252094  -5.5170720  -6.1657401
   2.0692094  -5.9080720  -5.2547401  -0.2657906  -5.9870720 -15.0977401
  -0.9237906  -5.4760720 -15.5697401  -0.3227906  -6.8630720 -15.4787401
  -3.2587906 -21.5050720  -2.1487401  -2.9607906 -21.2150720  -3.0107401
  -4.1327906 -21.1270720  -2.0567401  -0.8417906   8.1669280 -15.0957401
  -1.3207906   8.9889280 -14.9997401  -0.5197906   7.9719280 -14.2157401
  -3.0347906   2.4339280  -5.8257401  -2.5347906   2.5769280  -6.6297401
  -2.4327906   1.9629280  -5.2497401  -6.5757906 -18.9710720 -12.3497401
  -6.3147906 -19.8470720 -12.6327401  -5.7557906 -18.5440720 -12.1037401
  -4.9577906 -17.9150720 -10.5627401  -4.7907906 -16.9850720 -10.4067401
  -5.1177906 -18.2800720  -9.6927401  -2.4837906   2.5439280 -16.5617401
  -3.2077906   3.0329280 -16.9507401  -2.5627906   2.7059280 -15.6217401
  -1.1137906 -21.5520720   0.0202599  -0.5017906 -21.7660720  -0.6847401
  -1.8567906 -21.1430720  -0.4237401   4.3362094  -0.1490720 -11.2597401
   4.2042094   0.4349280 -10.5127401   3.5532094  -0.6990720 -11.2767401
  -1.6987906 -19.4530720 -14.6467401  -1.7017906 -18.9040720 -13.8617401
  -1.2517906 -18.9240720 -15.3077401  -0.8047906 -11.4240720  -3.1657401
  -0.8297906 -11.2450720  -4.1067401   0.0752094 -11.7690720  -3.0107401
  -6.2037906  -3.4730720  -6.0307401  -6.0837906  -4.0630720  -6.7747401
  -5.3657906  -3.0200720  -5.9467401   5.0512094  -4.1320720 -10.0247401
   4.9342094  -4.2660720  -9.0847401   5.4952094  -3.2860720 -10.0927401
 -21.7797906   4.0399280  -5.4147401 -22.6037906   3.6759280  -5.0927401
 -21.5817906   3.5279280  -6.1987401 -20.8787906   8.1239280  -0.7437401
 -20.5657906   7.2199280  -0.7307401 -21.3017906   8.2189280  -1.5977401
 -21.6567906  -3.1030720   0.6542599 -22.5417906  -2.7830720   0.4802599
 -21.7777906  -4.0180720   0.9092599 -20.7327906   6.7699280 -15.8777401
 -21.1647906   7.2109280 -16.6087401 -20.3457906   7.4799280 -15.3647401
  -5.3537906  -1.9490720 -12.4527401  -6.2417906  -2.2940720 -12.3587401
  -5.0917906  -2.2000720 -13.3387401   3.8622094  -4.0000720  -5.8267401
   3.4662094  -3.7800720  -4.9827401   3.9992094  -4.9470720  -5.7867401
  -2.8807906   1.9829280 -13.9337401  -3.3537906   1.1509280 -13.9167401
  -1.9667906   1.7419280 -13.7827401   0.2312094   0.0619280  -5.8947401
  -0.2437906   0.0459280  -6.7257401   1.1392094  -0.1240720  -6.1337401
  -1.2867906   5.4599280 -15.4517401  -0.9797906   5.1389280 -16.2997401
  -1.0117906   6.3769280 -15.4287401  -0.2467906   1.6189280 -13.1367401
  -0.2987906   0.8349280 -12.5897401   0.6712094   1.6659280 -13.4037401
 -20.0767906   1.6779280   2.3182599 -19.9237906   2.0469280   1.4492599
 -20.2657906   2.4359280   2.8712599   2.4162094 -18.3170720  -6.9757401
   2.0432094 -18.9240720  -7.6147401   3.2722094 -18.0850720  -7.3357401
 -19.7597906   5.2039280  -3.8137401 -20.4007906   4.7299280  -4.3427401
 -19.6967906   6.0649280  -4.2267401   1.2992094   0.2619280 -15.6507401
   1.9442094   0.8849280 -15.3167401   1.6242094   0.0209280 -16.5177401
   2.5102094  -5.0440720 -15.6557401   2.6172094  -5.7000720 -16.3447401
   1.6762094  -5.2660720 -15.2407401 -21.6047906   2.8149280   9.5902599
 -22.0607906   2.0249280   9.8792599 -20.6937906   2.5409280   9.4822599
  -1.3157906  -3.8870720 -10.3947401  -2.1257906  -3.5990720  -9.9737401
  -1.6057906  -4.3940720 -11.1527401  -1.5037906  -0.2660720  -8.4787401
  -2.4407906  -0.1830720  -8.3017401  -1.4567906  -0.6420720  -9.3577401
  -3.0997906  -0.0240720 -11.7947401  -3.6947906  -0.6920720 -12.1357401
  -2.3017906  -0.5040720 -11.5757401   0.8912094  -3.8160720  -8.8727401
   1.3402094  -4.6300720  -9.0997401   0.1402094  -3.7840720  -9.4657401
   4.6582094   4.2719280 -12.8787401   4.9452094   3.3689280 -12.7487401
   4.5832094   4.3659280 -13.8287401  -5.7877906   1.1459280  -1.7167401
  -5.9317906   0.4509280  -2.3597401  -6.0367906   1.9499280  -2.1717401
   2.7032094 -19.4230720 -17.1117401   1.8842094 -18.9300720 -17.1567401
   2.4662094 -20.2450720 -16.6827401   5.0252094  -5.0860720 -14.4247401
   4.3522094  -5.1190720 -15.1047401   5.4142094  -4.2150720 -14.5137401
  -4.6507906 -10.1160720  -1.2547401  -4.6997906  -9.8750720  -0.3297401
  -3.7847906  -9.8190720  -1.5337401 -11.0177906 -17.3830720  -3.9197401
 -11.7547906 -17.1770720  -3.3437401 -10.3157906 -16.8020720  -3.6277401
   1.8152094   8.1489280 -16.1207401   0.8682094   8.0359280 -16.0447401
   2.1692094   7.7399280 -15.3307401   1.3422094   6.9049280 -10.7147401
   2.1742094   6.4319280 -10.6997401   0.7112094   6.2919280 -10.3377401
   4.8172094   6.7789280 -11.7997401   4.7542094   5.8269280 -11.8807401
   4.7422094   6.9439280 -10.8597401   5.8302094   1.8529280 -17.2537401
   6.7342094   2.1579280 -17.1857401   5.4172094   2.4599280 -17.8677401
  -4.7107906   7.7699280  -5.5367401  -3.9877906   8.3929280  -5.4687401
  -4.2917906   6.9389280  -5.7587401 -21.9297906  -5.6710720   1.6102599
 -21.7927906  -5.9170720   2.5252599 -22.7697906  -6.0680720   1.3782599
 -17.9997906  -0.9590720   0.9482599 -17.9137906  -0.0310720   1.1662599
 -17.9257906  -1.4110720   1.7882599  -7.3517906   1.8979280 -16.3497401
  -6.8687906   1.7159280 -17.1557401  -7.4467906   1.0429280 -15.9297401
  -9.3017906   6.3549280  -4.0227401  -8.3657906   6.2859280  -3.8357401
  -9.5487906   5.4859280  -4.3387401   2.3542094   3.5949280 -17.5747401
   1.4432094   3.3039280 -17.5587401   2.5752094   3.6409280 -18.5047401
  -1.6587906   5.6019280 -12.8377401  -1.3937906   5.3749280 -13.7287401
  -1.2767906   6.4659280 -12.6857401  -6.7657906 -17.0000720  -3.6147401
  -6.7317906 -17.0540720  -2.6597401  -7.3597906 -16.2700720  -3.7917401
 -19.9327906   5.8989280  -7.1187401 -20.7887906   5.4739280  -7.1707401
 -19.5447906   5.7659280  -7.9827401   5.8792094  -2.3630720 -15.5237401
   6.7472094  -2.7410720 -15.6687401   5.3492094  -2.6960720 -16.2477401
   4.5072094  -2.6740720 -17.8437401   5.0002094  -2.3890720 -18.6137401
   4.5342094  -3.6300720 -17.8817401 -22.6417906   4.3079280 -15.7437401
 -22.2097906   3.7659280 -16.4047401 -21.9687906   4.9289280 -15.4657401
  -0.9057906  -1.2990720 -11.0997401  -1.0207906  -2.2430720 -10.9967401
  -0.4007906  -1.2050720 -11.9067401  -1.9917906   4.2179280  -7.8397401
  -2.2087906   4.3809280  -8.7577401  -2.0167906   5.0819280  -7.4297401
   4.5442094 -20.3840720 -13.1187401   4.8182094 -19.9010720 -13.8987401
   5.2012094 -21.0730720 -13.0197401  -4.3197906  -0.6710720  -8.0457401
  -4.5227906  -1.3010720  -8.7367401  -4.9417906   0.0429280  -8.1807401
   4.7802094   7.3589280  -8.9477401   4.6392094   7.8069280  -8.1137401
   5.6892094   7.0629280  -8.9117401 -12.9147906   6.7599280  -1.8177401
 -12.2647906   6.0589280  -1.8647401 -13.7517906   6.3229280  -1.9757401
 -22.1897906   3.5209280   0.4402599 -21.2617906   3.3039280   0.5272599
 -22.2217906   4.1519280  -0.2777401 -10.5427906  -5.1390720   9.3902599
  -9.8617906  -4.4670720   9.4202599 -10.3587906  -5.6320720   8.5902599
   6.6922094 -11.9550720 -15.4467401   6.4242094 -12.1230720 -16.3497401
   7.5262094 -12.4150720 -15.3537401 -21.8917906   8.3949280  -9.4377401
 -21.3937906   7.8339280 -10.0337401 -22.7347906   8.5189280  -9.8737401
 -22.6837906 -21.2850720 -13.2417401 -22.6787906 -21.3570720 -14.1967401
 -22.1387906 -22.0130720 -12.9437401  -2.7067906   4.7499280 -10.4287401
  -2.4297906   4.8049280 -11.3427401  -2.9337906   5.6489280 -10.1917401
  -5.0097906 -20.0660720 -17.3707401  -4.9947906 -20.2560720 -16.4327401
  -4.8167906 -20.9060720 -17.7887401  -1.5277906  -0.1230720 -16.1827401
  -0.6217906   0.0379280 -15.9197401  -1.8837906   0.7469280 -16.3597401
   2.0212094  -3.4290720  -3.8557401   2.3052094  -4.2890720  -3.5477401
   1.4502094  -3.1020720  -3.1607401   3.1272094   1.5129280  -9.2117401
   2.2282094   1.3349280  -8.9367401   3.0652094   2.3149280  -9.7307401
 -14.9667906 -16.9100720   9.4452599 -14.5917906 -16.8250720  10.3212599
 -15.4497906 -17.7360720   9.4692599 -22.2617906   1.4689280 -10.9997401
 -22.6267906   1.8739280 -11.7857401 -22.9557906   1.5469280 -10.3447401
  -1.7207906 -18.7170720   8.3322599  -1.1837906 -19.2980720   8.8712599
  -1.1067906 -18.0610720   8.0012599  -3.7187906   3.6919280  -1.7547401
  -3.9677906   3.9569280  -0.8697401  -4.2937906   2.9529280  -1.9547401
  -3.0237906   5.7489280   3.9072599  -2.2737906   5.5789280   3.3372599
  -3.2097906   6.6809280   3.7862599   3.2662094   7.0919280 -14.0587401
   3.7052094   7.3819280 -13.2587401   3.7182094   6.2829280 -14.2997401
  -0.8137906   5.9829280 -18.3677401   0.1112094   6.0479280 -18.6047401
  -1.0847906   5.1249280 -18.6947401  -5.1997906  -0.8190720 -16.1617401
  -5.3977906  -1.6700720 -16.5537401  -5.0397906  -0.2430720 -16.9087401
  -3.6287906   0.8279280  -0.0127401  -3.9367906   0.4879280   0.8272599
  -4.4167906   0.8829280  -0.5527401   6.5202094  -1.4570720  -9.7747401
   7.3262094  -1.0560720 -10.1007401   5.9002094  -1.3690720 -10.4987401
   6.9262094 -20.3140720   3.3412599   7.1592094 -20.9660720   2.6802599
   5.9842094 -20.4290720   3.4702599 -21.3287906  -1.0510720   6.7352599
 -20.8217906  -1.6800720   6.2212599 -21.9347906  -0.6600720   6.1052599
   3.8152094 -16.3950720  10.7702599   2.9912094 -16.7920720  10.4882599
   3.8102094 -15.5250720  10.3712599 -19.9697906   4.1479280   3.7632599
 -19.0437906   3.9329280   3.6482599 -19.9647906   5.0039280   4.1922599
   3.3042094 -20.8870720   7.1532599   3.0742094 -21.4760720   6.4352599
   4.0972094 -21.2670720   7.5312599  -2.0747906 -17.6620720   0.8612599
  -1.9497906 -17.6120720  -0.0857401  -1.2037906 -17.5110720   1.2272599
  -5.9767906 -20.3540720   7.7042599  -5.3367906 -20.9690720   8.0642599
  -5.6897906 -19.4970720   8.0192599   3.3452094   4.8399280 -15.4767401
   2.8542094   5.6489280 -15.3337401   2.9972094   4.4909280 -16.2967401
  -5.7727906   6.8479280   5.4322599  -5.2317906   6.9419280   6.2162599
  -5.6377906   5.9419280   5.1552599   0.8072094   3.3889280   2.6902599
   0.0392094   3.0349280   2.2412599   1.3372094   3.7739280   1.9922599
  -1.5597906   1.9529280   1.4022599  -2.2947906   1.5179280   0.9712599
  -1.9567906   2.4289280   2.1312599 -19.6397906   8.1339280   4.4792599
 -19.9177906   7.9359280   3.5852599 -19.2037906   8.9839280   4.4132599
   1.6092094 -12.1480720   0.7302599   2.4402094 -11.9330720   1.1542599
   0.9412094 -11.8070720   1.3252599 -20.1087906  -0.4030720 -18.8507401
 -20.9497906   0.0549280 -18.8417401 -19.9227906  -0.5430720 -19.7797401
  -4.2387906   5.0089280   0.5932599  -3.4157906   5.4419280   0.8192599
  -4.8777906   5.3739280   1.2042599   1.1452094 -19.8970720   3.9762599
   0.2712094 -19.6180720   4.2512599   1.1882094 -20.8230720   4.2152599
   0.7802094  -1.1180720 -13.2827401   1.6422094  -1.5170720 -13.1637401
   0.8112094  -0.7340720 -14.1587401  -1.7937906   0.3919280  -2.0397401
  -2.1717906   0.4969280  -1.1657401  -1.3557906   1.2249280  -2.2137401
   6.5452094 -15.0980720   2.3562599   6.1562094 -15.3930720   1.5332599
   6.2132094 -15.7110720   3.0122599 -17.7737906  -1.3040720   3.9322599
 -17.3797906  -0.7580720   4.6122599 -18.5797906  -1.6360720   4.3282599
  -0.4967906 -20.9610720 -19.3657401   0.0362094 -21.2380720 -18.6207401
   0.1392094 -20.7470720 -20.0487401 -20.7487906 -19.1220720   0.2542599
 -20.7767906 -18.4630720  -0.4397401 -21.4207906 -19.7580720   0.0092599
  -6.7847906   7.6959280  -0.7957401  -7.7217906   7.6089280  -0.9727401
  -6.6767906   7.3609280   0.0942599  -2.4267906   2.6439280   3.8182599
  -2.7297906   3.5429280   3.9442599  -2.9737906   2.1219280   4.4052599
 -21.9437906 -15.3470720 -18.4807401 -21.6147906 -14.8930720 -19.2567401
 -21.1997906 -15.3660720 -17.8797401 -18.2497906   4.2979280   6.5882599
 -19.1847906   4.4639280   6.7052599 -18.1117906   3.4269280   6.9622599
 -12.8117906   4.6689280   2.5832599 -11.9847906   4.1979280   2.6882599
 -12.5517906   5.5809280   2.4472599  -9.6987906   7.6829280  -1.2817401
  -9.3917906   7.0939280  -1.9707401 -10.4677906   8.1109280  -1.6577401
 -18.6917906  -7.8890720  24.3752599 -18.7917906  -7.1400720  24.9622599
 -18.1467906  -8.5060720  24.8632599  -1.5247906 -16.3010720  40.5452599
  -2.2717906 -16.6100720  41.0582599  -1.8927906 -15.6380720  39.9612599
 -15.8487906   5.7099280  14.7472599 -16.5537906   5.1529280  15.0772599
 -15.8237906   6.4489280  15.3552599  -1.6877906 -20.4150720  32.3492599
  -1.8477906 -21.2640720  31.9372599  -1.1777906 -19.9260720  31.7032599
 -16.1017906  -2.8540720  32.0842599 -16.4287906  -2.1990720  32.7022599
 -15.1597906  -2.6910720  32.0392599 -10.9277906  -9.5960720  22.6952599
 -11.5227906 -10.3190720  22.8942599 -10.0557906  -9.9880720  22.7232599
 -16.9337906 -14.5950720  19.3152599 -17.3987906 -15.3920720  19.0622599
 -16.9097906 -14.0680720  18.5162599 -22.1767906  -7.4910720  19.1502599
 -22.9997906  -7.1710720  18.7782599 -21.9037906  -8.1920720  18.5592599
 -13.7487906 -12.8820720  28.4402599 -14.3547906 -13.3150720  29.0422599
 -13.4187906 -13.5880720  27.8842599 -11.5867906 -10.2160720  16.3182599
 -12.1707906  -9.7660720  16.9282599 -11.1337906 -10.8670720  16.8542599
  -5.3457906  -6.3370720  28.5222599  -4.8647906  -6.4200720  29.3462599
  -4.6807906  -6.4560720  27.8442599 -17.1977906  -7.8780720  19.5642599
 -17.0477906  -7.8470720  20.5092599 -18.0587906  -7.4780720  19.4442599
 -20.2797906 -14.4010720  39.4612599 -19.5387906 -13.9890720  39.9072599
 -19.9497906 -14.6040720  38.5862599   5.2242094 -16.0010720  16.1632599
   4.2842094 -15.8810720  16.0272599   5.4032094 -16.8850720  15.8442599
 -12.1277906  -5.5800720  17.2792599 -11.6787906  -4.7390720  17.3632599
 -12.9357906  -5.4710720  17.7812599  -4.3807906 -16.7070720  35.6602599
  -4.6977906 -17.0500720  36.4952599  -4.4407906 -17.4480720  35.0572599
   5.9872094 -11.6250720  26.3872599   5.0482094 -11.5640720  26.2132599
   6.0442094 -11.9680720  27.2792599 -20.4237906  -0.7940720  14.4602599
 -19.6307906  -0.2580720  14.4612599 -20.1397906  -1.6440720  14.7962599
 -13.1577906   2.4389280  40.8002599 -13.7647906   3.0299280  40.3552599
 -12.2897906   2.7829280  40.5892599  -9.2827906  -6.8860720  11.1492599
  -9.9117906  -7.5870720  11.3202599  -9.7347906  -6.3010720  10.5412599
 -18.3807906   7.2219280  36.8482599 -17.9147906   6.5449280  36.3572599
 -19.0287906   7.5629280  36.2312599 -21.2237906 -13.6960720  15.7522599
 -20.8997906 -14.4840720  15.3172599 -20.4377906 -13.2700720  16.0952599
 -18.4347906 -19.8690720  27.2522599 -19.3657906 -19.7320720  27.0782599
 -18.0447906 -19.9930720  26.3872599  -5.8347906  -7.1830720  38.9992599
  -4.9927906  -7.5810720  39.2202599  -5.6717906  -6.7180720  38.1782599
 -11.7937906 -19.3830720  28.7602599 -12.0557906 -18.4620720  28.7532599
 -11.1207906 -19.4360720  29.4382599  -7.6577906 -20.8840720  19.4862599
  -8.0477906 -20.1360720  19.0342599  -7.7227906 -21.6040720  18.8592599
 -15.9377906   5.3619280  20.3722599 -15.7207906   6.2449280  20.6702599
 -15.7957906   5.3859280  19.4262599 -10.5357906 -12.4880720  37.5742599
 -10.9367906 -11.7370720  37.1382599  -9.8267906 -12.1120720  38.0962599
 -14.4587906 -15.1800720  14.1162599 -13.7947906 -14.6580720  13.6662599
 -14.8247906 -14.5870720  14.7732599   1.5722094 -12.1530720  27.9792599
   1.9082094 -13.0460720  27.9092599   1.4782094 -12.0050720  28.9202599
 -15.0187906  -7.7940720  17.7062599 -15.6537906  -8.0550720  18.3732599
 -14.4477906  -8.5560720  17.6072599 -13.7267906 -18.7570720  22.9152599
 -13.5467906 -18.3010720  22.0932599 -13.0397906 -18.4580720  23.5122599
 -15.1637906  -4.2630720  23.1162599 -15.6797906  -3.6700720  23.6632599
 -15.1987906  -5.1030720  23.5742599  -0.3577906 -17.9590720  13.2782599
  -1.1307906 -17.9890720  12.7142599  -0.0147906 -17.0720720  13.1672599
 -15.6047906 -13.3610720  40.4662599 -15.4527906 -12.8220720  41.2422599
 -14.7477906 -13.4230720  40.0452599 -12.4027906   4.3199280  37.4092599
 -12.4107906   4.7189280  36.5392599 -13.1967906   4.6489280  37.8312599
 -18.1257906 -17.9530720  22.9612599 -18.9787906 -17.6140720  22.6872599
 -17.5817906 -17.1730720  23.0682599  -9.6657906  -9.2450720  37.6722599
  -9.2387906  -9.5170720  36.8592599  -8.9507906  -9.1600720  38.3022599
  -7.2417906 -17.0620720  33.8222599  -6.6897906 -16.4210720  33.3742599
  -7.5457906 -17.6450720  33.1272599 -17.8957906  -7.4840720  16.6682599
 -17.5697906  -8.2830720  17.0832599 -18.4167906  -7.0560720  17.3472599
 -10.8707906 -16.6330720  29.0452599 -10.0017906 -16.2470720  28.9382599
 -11.0467906 -16.5720720  29.9842599 -19.8127906   2.1569280  15.6072599
 -20.2527906   1.5669280  16.2192599 -19.0217906   1.6859280  15.3452599
 -13.4217906 -15.5660720  24.1742599 -14.3447906 -15.7430720  24.3552599
 -13.2677906 -15.9540720  23.3132599 -16.3537906  -2.5170720  24.8252599
 -17.0157906  -2.6080720  25.5102599 -15.7227906  -1.8930720  25.1832599
 -10.0857906 -16.8220720  23.6492599  -9.2567906 -17.2880720  23.5372599
 -10.4427906 -17.1630720  24.4702599 -11.8937906  -6.0490720  22.5152599
 -12.7417906  -6.4560720  22.3392599 -12.0837906  -5.1120720  22.5702599
 -11.5347906 -12.9120720  19.9642599 -11.4717906 -13.6210720  20.6052599
 -12.1397906 -12.2850720  20.3582599 -15.4357906   7.2479280  12.2942599
 -16.1317906   6.7229280  11.8992599 -15.5257906   7.0959280  13.2352599
 -16.8057906 -20.6840720  15.0772599 -15.9567906 -21.0930720  14.9082599
 -16.6517906 -19.7490720  14.9452599 -13.4007906 -12.8430720  17.1782599
 -12.9117906 -13.1090720  17.9572599 -12.7937906 -12.2820720  16.6952599
 -11.8447906  -3.1680720  26.5802599 -11.2097906  -3.6810720  26.0802599
 -12.6737906  -3.6310720  26.4632599 -13.7397906 -11.4830720  20.5932599
 -13.5037906 -11.2430720  21.4892599 -14.6727906 -11.6940720  20.6392599
 -10.6217906 -18.5370720  17.2632599 -10.2297906 -18.0570720  17.9932599
  -9.9867906 -19.2240720  17.0582599 -20.0487906 -11.2430720  26.5532599
 -20.6147906 -10.7710720  25.9422599 -20.6547906 -11.6960720  27.1402599
 -19.0197906 -15.6350720  29.1602599 -18.2767906 -16.1700720  28.8822599
 -19.7707906 -16.0100720  28.6992599 -15.5477906 -16.0770720  21.3842599
 -16.1627906 -15.4990720  20.9322599 -15.1717906 -16.6180720  20.6902599
 -18.3227906 -17.2490720  19.2252599 -18.9937906 -17.8870720  19.4652599
 -18.0607906 -17.4970720  18.3392599  -4.6067906 -10.3670720  21.7062599
  -4.0227906 -10.4060720  20.9492599  -5.4837906 -10.4700720  21.3392599
 -10.1967906 -18.8220720  13.2602599 -10.5647906 -18.4520720  12.4582599
  -9.5377906 -18.1850720  13.5382599   0.8662094  -2.3130720  36.2372599
   0.1322094  -2.6180720  36.7692599   1.2622094  -1.6110720  36.7542599
 -18.8167906 -11.5320720  29.8502599 -18.1067906 -12.0750720  29.5062599
 -18.6767906 -10.6730720  29.4512599  -9.2077906 -11.8710720  13.7822599
  -8.7307906 -12.6180720  14.1422599  -8.5917906 -11.1400720  13.8452599
 -12.1317906 -10.2790720  11.0892599 -11.8497906  -9.5990720  10.4772599
 -12.2187906  -9.8250720  11.9282599 -16.6147906   7.2219280  18.0062599
 -17.1897906   7.7579280  18.5512599 -15.8737906   7.7929280  17.8032599
  -7.1737906 -14.9520720  19.6012599  -7.1927906 -14.9520720  20.5582599
  -6.2717906 -14.7180720  19.3802599 -15.4557906  -6.6160720  24.7202599
 -16.0717906  -6.9030720  25.3942599 -15.1007906  -7.4290720  24.3592599
 -21.2367906 -19.7270720  22.9932599 -21.1427906 -20.1660720  22.1482599
 -21.0317906 -18.8100720  22.8122599 -13.0147906  -8.0010720  31.3162599
 -12.9007906  -8.9510720  31.3042599 -12.5877906  -7.6980720  30.5142599
 -16.9347906 -10.4300720  38.9672599 -16.1277906 -10.3550720  39.4752599
 -17.6167906 -10.5880720  39.6202599 -10.1817906  -8.4180720  24.9482599
 -10.5497906  -8.2260720  24.0852599  -9.8307906  -9.3050720  24.8672599
 -12.6697906 -13.0200720  13.5602599 -12.0127906 -12.9590720  12.8672599
 -12.2187906 -12.7110720  14.3462599 -18.1057906  -6.1440720  33.7422599
 -18.2487906  -5.6640720  32.9262599 -17.8417906  -5.4730720  34.3712599
 -19.8977906  -5.1090720  24.9772599 -19.2847906  -4.4590720  25.3192599
 -20.5677906  -5.1890720  25.6562599 -12.8397906 -19.9430720  19.7802599
 -11.9267906 -19.7800720  19.5432599 -12.7967906 -20.3090720  20.6632599
 -10.2967906 -12.1720720  17.6582599  -9.8887906 -12.6080720  16.9092599
 -10.1947906 -12.7910720  18.3812599  -4.5617906 -10.7510720  38.2112599
  -4.8727906 -10.6910720  37.3082599  -3.6137906 -10.6370720  38.1472599
 -17.7467906  -9.3660720  28.7592599 -16.9807906  -9.8480720  28.4472599
 -18.1237906  -8.9780720  27.9692599 -18.3427906 -14.5730720  31.7092599
 -18.4367906 -14.8470720  30.7962599 -18.3527906 -13.6170720  31.6752599
  -6.0137906 -12.7270720  32.5272599  -6.6867906 -13.3010720  32.1612599
  -5.4287906 -13.3160720  33.0032599  -5.4787906 -20.2490720  27.9862599
  -5.6667906 -19.3990720  28.3842599  -6.2207906 -20.8000720  28.2342599
 -18.4557906   3.0849280  23.7472599 -17.6307906   3.5169280  23.5242599
 -18.9387906   3.7359280  24.2552599 -16.7267906  -6.7060720  22.0572599
 -17.3457906  -6.1870720  21.5442599 -16.8167906  -6.3720720  22.9502599
 -14.3107906 -17.4260720  19.2262599 -13.9497906 -17.1100720  18.3982599
 -13.8317906 -18.2360720  19.4032599 -13.5907906   8.3939280  30.1682599
 -13.6917906   7.7549280  29.4632599 -13.0397906   9.0809280  29.7922599
 -16.9147906   4.6089280  26.3982599 -17.8357906   4.8369280  26.2732599
 -16.5567906   4.5629280  25.5122599 -18.6407906 -13.5240720  17.1722599
 -19.2127906 -13.2330720  17.8822599 -18.4897906 -12.7380720  16.6472599
  -1.8817906 -13.4420720  28.4672599  -2.3227906 -13.1240720  29.2552599
  -1.5167906 -12.6550720  28.0622599 -19.2657906   7.6309280  25.0022599
 -19.3597906   7.1669280  24.1702599 -18.7347906   8.3989280  24.7902599
 -15.1667906  -5.9750720  11.1752599 -14.6747906  -6.6580720  11.6302599
 -14.6627906  -5.1750720  11.3252599 -13.0407906 -18.6800720  16.2552599
 -12.1917906 -18.8290720  16.6732599 -13.0127906 -19.2090720  15.4582599
 -13.7867906  -5.1650720  26.2242599 -14.0837906  -5.5540720  27.0462599
 -14.4097906  -5.4830720  25.5702599   2.1322094 -10.8550720  33.0482599
   1.5932094 -11.4240720  33.5972599   1.5352094 -10.1650720  32.7572599
  -9.8207906 -15.4850720  31.5192599  -9.5457906 -14.5710720  31.4482599
  -9.3577906 -15.8150720  32.2892599  -8.8207906 -11.5450720  39.7102599
  -8.0937906 -12.1050720  39.9822599  -8.4587906 -11.0100720  39.0032599
  -7.8057906 -14.4470720  38.6622599  -7.5807906 -14.5220720  39.5892599
  -8.6627906 -14.8670720  38.5882599 -17.0707906 -10.0140720  22.9002599
 -17.3027906  -9.7950720  23.8032599 -16.2277906  -9.5840720  22.7592599
   6.2582094 -19.1960720  24.1942599   6.3772094 -18.8410720  25.0752599
   7.1472094 -19.3370720  23.8692599  -7.4657906 -13.7020720  24.1842599
  -7.3067906 -14.4220720  23.5742599  -6.5927906 -13.4360720  24.4732599
 -21.6127906  -3.7520720  40.0632599 -20.9077906  -3.4660720  40.6432599
 -21.1657906  -4.1940720  39.3422599 -20.3367906  -8.1310720  22.1312599
 -19.8457906  -8.2460720  22.9452599 -20.4197906  -7.1820720  22.0342599
 -18.7317906 -10.5920720  20.8052599 -19.4547906  -9.9810720  20.9422599
 -18.1257906 -10.4120720  21.5252599 -20.3427906 -19.2950720  20.1002599
 -20.8917906 -18.5570720  19.8332599 -20.9307906 -20.0500720  20.0812599
 -19.7927906  -5.4740720  22.2102599 -19.8377906  -5.4040720  23.1642599
 -19.7037906  -4.5700720  21.9072599 -10.2387906  -7.3730720  27.3552599
 -10.1247906  -7.8190720  26.5152599  -9.4197906  -6.8950720  27.4862599
  -7.1017906  -9.5010720  38.6392599  -6.2647906  -9.9610720  38.7122599
  -6.8997906  -8.5970720  38.8812599 -13.3177906  -5.6330720  14.4882599
 -13.0467906  -5.7650720  15.3972599 -12.9067906  -4.8070720  14.2332599
 -14.7677906  -3.2800720  27.8842599 -14.9997906  -3.9870720  28.4862599
 -14.5707906  -3.7230720  27.0592599 -14.7927906 -20.5130720  24.6772599
 -14.6257906 -19.7600720  24.1102599 -14.2277906 -20.3700720  25.4382599
 -18.9567906   6.7029280  16.7242599 -19.2797906   7.5579280  16.4392599
 -18.0727906   6.8749280  17.0462599 -20.6897906   0.5669280  28.4742599
 -19.9707906   0.2449280  27.9322599 -20.5057906   1.4989280  28.5892599
 -17.0097906  -5.4860720  14.9262599 -16.2177906  -5.9220720  14.6122599
 -17.1947906  -5.9030720  15.7682599 -16.0777906 -11.1550720  27.5262599
 -15.1417906 -11.3520720  27.4882599 -16.4817906 -11.9660720  27.8352599
 -13.7107906  -1.8340720  32.7142599 -12.9457906  -2.1680720  32.2442599
 -13.4657906  -0.9440720  32.9692599  -9.3687906 -21.0000720  15.7392599
  -8.5517906 -21.0210720  16.2362599  -9.0947906 -21.0540720  14.8232599
 -14.6817906  -4.2420720  20.2982599 -14.7007906  -3.3240720  20.0252599
 -14.8157906  -4.2130720  21.2452599 -10.9517906 -12.6930720  11.4322599
 -11.3397906 -11.8620720  11.1602599 -10.0077906 -12.5380720  11.4062599
  -8.7577906  -0.8580720  30.4792599  -9.6307906  -1.0440720  30.8232599
  -8.6987906  -1.3830720  29.6802599 -14.0307906  -6.7370720  21.1262599
 -14.9137906  -6.8920720  21.4632599 -14.0827906  -5.8780720  20.7062599
  -8.0807906 -16.5340720  17.3502599  -7.5247906 -17.3100720  17.2812599
  -7.5447906 -15.8950720  17.8202599  -8.0717906  -3.1900720  39.4562599
  -7.7887906  -2.3150720  39.1872599  -7.5517906  -3.3810720  40.2362599
  -8.0107906  -6.0710720  27.4752599  -7.8997906  -5.2630720  26.9742599
  -7.1397906  -6.2580720  27.8252599 -15.0847906  -8.3120720  37.3822599
 -15.3127906  -8.8290720  38.1552599 -14.3867906  -7.7290720  37.6792599
  -4.0067906  -2.9190720  40.1562599  -3.6387906  -3.8010720  40.1052599
  -3.3147906  -2.3500720  39.8192599  -9.1367906  -9.5240720  18.9252599
  -9.8547906  -9.1170720  19.4112599  -9.4217906 -10.4270720  18.7882599
 -18.3807906 -21.5940720  19.7662599 -17.8587906 -21.2350720  20.4832599
 -19.1047906 -20.9760720  19.6632599 -19.6147906  -6.2770720  18.6092599
 -20.2127906  -6.1500720  17.8732599 -20.0867906  -6.8570720  19.2052599
  -9.3207906 -11.3160720  26.0352599  -8.6947906 -10.6020720  26.1552599
  -8.8017906 -12.0290720  25.6602599   5.9892094 -14.8120720  25.7312599
   5.7822094 -15.2240720  24.8932599   5.1652094 -14.4130720  26.0122599
 -16.4617906  -9.0340720  31.4162599 -17.0487906  -8.9280720  30.6672599
 -16.0047906  -8.1960720  31.4832599 -20.6187906 -19.1310720  25.6342599
 -20.8267906 -19.5490720  24.7982599 -20.0537906 -18.3940720  25.3992599
  -2.4587906 -20.3720720  25.0082599  -1.5677906 -20.4990720  24.6822599
  -2.4847906 -19.4550720  25.2832599 -11.6047906  -8.3330720  20.2452599
 -11.3197906  -8.3780720  21.1572599 -12.3437906  -7.7250720  20.2542599
 -17.5237906  -4.9670720  11.8582599 -16.6147906  -5.1630720  12.0872599
 -17.7177906  -5.5530720  11.1272599 -16.8517906 -20.2680720  21.4532599
 -16.1037906 -19.6730720  21.4972599 -17.6107906 -19.7140720  21.6372599
  -8.7757906 -12.2620720  20.6462599  -9.7267906 -12.3360720  20.5642599
  -8.4357906 -13.0450720  20.2122599  -8.9717906  -5.5710720  30.5292599
  -9.4297906  -5.9580720  29.7832599  -8.6597906  -4.7250720  30.2052599
  -4.8487906 -16.7860720  10.9482599  -5.7607906 -16.5180720  11.0642599
  -4.6147906 -17.2050720  11.7772599 -16.7307906  -9.8080720  13.7402599
 -17.5507906  -9.3150720  13.7032599 -16.0927906  -9.1860720  14.0892599
  -2.0277906  -9.6040720  28.2152599  -1.4817906 -10.3170720  27.8842599
  -1.9017906  -8.8930720  27.5862599  -6.7167906 -10.8170720  20.1962599
  -7.5057906 -11.2060720  20.5732599  -6.4797906 -11.4020720  19.4772599
 -10.9327906  -9.6230720  13.7542599 -11.2167906  -9.6010720  14.6672599
 -10.5287906 -10.4840720  13.6482599 -12.2097906  -3.3870720  22.9322599
 -13.1417906  -3.5500720  23.0752599 -12.1287906  -2.4330720  22.9372599
 -16.4307906 -17.6860720  16.8922599 -15.9887906 -17.4030720  17.6922599
 -16.0357906 -17.1560720  16.1992599  -4.9907906 -10.8930720  35.3282599
  -5.7617906 -11.3560720  35.0002599  -4.2537906 -11.3090720  34.8822599
   4.3402094  -8.4770720  27.1442599   4.6882094  -9.0630720  27.8162599
   3.6582094  -8.9890720  26.7092599 -16.3807906 -12.3230720  20.2822599
 -17.1587906 -11.7680720  20.2252599 -16.6197906 -13.1210720  19.8102599
  -8.2487906 -10.2320720  23.1192599  -7.4997906  -9.6420720  23.0302599
  -7.9707906 -11.0390720  22.6852599 -16.9177906  -2.2150720  21.1112599
 -17.5807906  -1.9700720  21.7562599 -17.3897906  -2.7510720  20.4742599
 -12.2797906 -16.7270720  21.6992599 -12.3657906 -16.0560720  21.0212599
 -11.4327906 -16.5490720  22.1072599 -14.8107906  -7.7630720  14.9012599
 -14.1287906  -7.1490720  14.6302599 -14.8867906  -7.6360720  15.8472599
 -14.3067906   7.9859280  15.3342599 -13.5527906   8.2519280  14.8072599
 -14.1507906   8.3819280  16.1912599 -18.7747906   5.6919280  20.5672599
 -17.8397906   5.4839280  20.5692599 -18.8127906   6.6229280  20.3492599
  -4.9557906 -15.7670720  16.9342599  -4.0387906 -15.9520720  16.7322599
  -5.4447906 -16.1570720  16.2102599   2.0082094 -14.1340720  19.2242599
   2.1182094 -14.8330720  18.5792599   2.6862094 -13.4960720  19.0042599
 -13.1627906  -9.7220720  18.4902599 -12.4087906  -9.2860720  18.8872599
 -13.5347906 -10.2500720  19.1962599  -4.9717906 -10.2310720  31.6872599
  -5.2347906 -11.0670720  32.0712599  -5.7887906  -9.7410720  31.5942599
  -6.4057906 -17.9350720  29.6622599  -5.7027906 -17.2850720  29.6592599
  -6.6157906 -18.0570720  30.5882599 -11.1677906 -13.4370720  34.2212599
 -10.8927906 -14.0700720  34.8852599 -10.8817906 -12.5910720  34.5652599
  -4.4737906 -12.9280720  27.6302599  -4.6177906 -12.1130720  28.1112599
  -3.5577906 -13.1480720  27.7992599 -14.9887906 -11.8590720  12.5162599
 -14.1137906 -12.1690720  12.7482599 -15.4427906 -11.7700720  13.3542599
 -15.3457906 -12.0100720  37.1032599 -15.7337906 -11.4130720  37.7432599
 -14.9437906 -11.4360720  36.4522599  -9.3247906 -13.2040720  28.3962599
 -10.2407906 -13.0910720  28.6522599  -9.0947906 -12.3840720  27.9592599
 -17.4207906 -11.7270720  32.1582599 -18.3247906 -11.4800720  32.3522599
 -16.9307906 -10.9070720  32.2132599  -7.1137906  -7.9180720  32.1232599
  -7.8837906  -7.3520720  32.0672599  -7.0677906  -8.1700720  33.0452599
 -17.4367906 -15.7130720  15.1542599 -16.8747906 -14.9710720  14.9312599
 -17.6857906 -15.5600720  16.0662599  -6.6137906  -8.7800720  34.9412599
  -5.8607906  -9.1830720  35.3732599  -7.3047906  -9.4410720  34.9972599
  -2.5047906  -8.8820720  32.1342599  -3.2467906  -8.8570720  32.7372599
  -2.7787906  -8.3410720  31.3932599 -14.9327906   4.4639280  34.3252599
 -14.2837906   4.6659280  33.6512599 -15.7397906   4.2969280  33.8382599
  -4.3957906  -6.7930720  31.3402599  -3.9727906  -6.3720720  32.0892599
  -5.2877906  -6.9720720  31.6382599  -7.8367906  -6.3990720  34.5692599
  -7.1817906  -5.8450720  34.1442599  -7.3257906  -7.0660720  35.0272599
  -5.0897906 -12.5490720  25.1452599  -4.6047906 -11.7240720  25.1472599
  -5.0497906 -12.8530720  26.0522599  -5.7537906 -17.2730720  14.3082599
  -5.4897906 -18.1360720  14.6272599  -6.4797906 -17.4510720  13.7092599
 -10.6697906  -8.5140720  34.0952599 -10.0167906  -8.4070720  33.4032599
 -10.9847906  -7.6270720  34.2672599 -13.5127906 -16.8150720  27.2932599
 -14.3347906 -16.7980720  26.8032599 -13.7817906 -16.8540720  28.2112599
 -12.5277906 -11.6770720  23.2122599 -11.9717906 -12.4490720  23.1042599
 -12.6297906 -11.5860720  24.1602599 -11.2927906 -10.9090720  35.2472599
 -11.0377906 -10.0760720  34.8492599 -12.0587906 -11.1890720  34.7462599
   6.0182094 -14.2920720  12.9022599   6.0572094 -14.5860720  13.8122599
   6.7272094 -14.7670720  12.4672599  -9.9807906 -15.4680720  36.4702599
 -10.5907906 -14.7640720  36.6882599 -10.5227906 -16.1320720  36.0442599
  -0.7387906 -12.1770720  40.0982599   0.1472094 -12.5370720  40.0452599
  -1.3127906 -12.9320720  39.9732599  -4.9757906 -15.7630720  28.9662599
  -4.0727906 -15.9440720  28.7032599  -5.0267906 -14.8080720  29.0092599
  -6.9167906  -2.1570720  35.4802599  -7.2247906  -2.7260720  36.1852599
  -5.9627906  -2.1740720  35.5572599 -10.5027906  -3.7260720  29.0892599
 -11.2127906  -3.7770720  28.4492599  -9.8527906  -3.1540720  28.6812599
  -1.2357906 -11.4710720  24.1722599  -2.0107906 -11.0490720  24.5432599
  -1.1127906 -11.0450720  23.3242599 -19.7697906  -8.6910720  36.2232599
 -19.2777906  -8.8390720  35.4162599 -20.0807906  -9.5600720  36.4782599
  -8.1327906   7.6749280  37.3152599  -7.4397906   8.2079280  36.9242599
  -8.4747906   8.2129280  38.0292599 -17.1387906   2.0559280  10.6962599
 -16.7177906   2.3049280  11.5192599 -16.4287906   1.7009280  10.1622599
 -19.7847906  -3.2960720  12.0472599 -19.6557906  -2.3480720  12.0762599
 -18.9397906  -3.6450720  11.7662599 -17.1487906 -13.3890720  28.8662599
 -16.5497906 -13.6850720  29.5522599 -17.6237906 -14.1780720  28.6062599
 -16.9017906 -15.3000720  33.7902599 -16.9487906 -16.2560720  33.7752599
 -17.5547906 -15.0170720  33.1512599 -19.2577906  -8.7820720  13.8892599
 -20.0907906  -9.1500720  14.1862599 -19.3507906  -7.8390720  14.0252599
 -10.7327906 -19.2760720  36.2692599 -10.9177906 -19.2220720  37.2062599
 -11.1377906 -18.4920720  35.8982599 -19.3397906 -11.9610720  37.7612599
 -19.1037906 -12.8470720  37.4872599 -18.7147906 -11.7490720  38.4542599
  -2.6967906 -17.7270720  25.6412599  -2.2047906 -17.0630720  25.1582599
  -3.5487906 -17.7580720  25.2062599 -13.6627906   8.1249280  33.1182599
 -12.8777906   8.6699280  33.1682599 -13.6447906   7.7579280  32.2342599
 -12.5227906  -4.6420720  36.8502599 -12.1997906  -5.1800720  36.1262599
 -12.2777906  -3.7480720  36.6122599 -17.1167906 -15.0030720  38.5792599
 -16.5397906 -14.7800720  37.8492599 -16.5827906 -14.8570720  39.3602599
 -13.7897906 -11.4640720  34.0172599 -14.4477906 -10.8710720  34.3802599
 -14.2757906 -12.2600720  33.8012599 -20.1767906 -12.3760720  23.2692599
 -20.6877906 -11.7550720  23.7872599 -20.8287906 -12.9570720  22.8792599
 -12.6927906 -19.8010720  14.0262599 -13.2427906 -19.7300720  13.2452599
 -11.8387906 -19.4700720  13.7482599  -7.2557906   3.9859280  36.9002599
  -7.9907906   3.4329280  36.6362599  -6.7227906   4.0699280  36.1092599
 -15.6577906 -14.4240720  36.1552599 -16.1387906 -14.5380720  35.3362599
 -15.5387906 -13.4780720  36.2342599  -8.5017906 -10.7440720  35.6142599
  -9.3397906 -10.8780720  35.1722599  -8.2027906 -11.6260720  35.8342599
   1.9552094 -15.4940720  27.7602599   1.0162094 -15.5340720  27.5782599
   2.3692094 -15.8230720  26.9622599 -17.6557906 -10.0950720  25.7322599
 -18.4197906 -10.5150720  26.1262599 -16.9057906 -10.5410720  26.1272599
 -11.3897906 -20.1500720  32.9782599 -11.0147906 -20.2690720  33.8512599
 -10.6397906 -19.9440720  32.4202599 -18.4387906 -19.5290720  33.2062599
 -17.7677906 -18.9770720  33.6092599 -19.0587906 -18.9100720  32.8222599
 -15.0107906  -5.0200720  17.6782599 -15.1977906  -5.9500720  17.8032599
 -14.9797906  -4.6590720  18.5642599 -13.2667906  -6.7190720  38.6052599
 -12.8437906  -5.9540720  38.2142599 -13.7527906  -6.3690720  39.3522599
 -21.0377906 -20.9380720  39.5502599 -20.2377906 -20.4920720  39.8282599
 -21.7047906 -20.2510720  39.5422599 -10.0817906  -9.3500720  29.5722599
 -10.5837906 -10.1400720  29.3752599 -10.1607906  -8.8130720  28.7832599
 -19.7737906   6.3919280  39.1842599 -19.5467906   6.1979280  38.2742599
 -19.9077906   7.3389280  39.2012599 -13.9897906  -2.2850720  39.4872599
 -13.7527906  -2.7990720  40.2592599 -14.5847906  -1.6130720  39.8192599
 -12.0007906 -17.0540720  35.3202599 -12.8997906 -16.9910720  35.6432599
 -12.0907906 -17.1000720  34.3682599 -14.6537906 -10.1560720  40.1312599
 -13.7057906 -10.0260720  40.1392599 -14.8227906 -10.7420720  40.8692599
 -15.4017906 -13.3170720  33.1532599 -15.8087906 -14.1750720  33.2712599
 -15.9147906 -12.9010720  32.4602599 -16.8537906 -19.0780720  40.2662599
 -17.4097906 -19.1500720  41.0412599 -17.3377906 -19.5360720  39.5792599
   6.1212094 -21.6590720  37.9822599   6.4912094 -20.9150720  38.4572599
   6.6462094 -21.7200720  37.1842599  -3.9857906 -18.0330720  32.9642599
  -3.9537906 -18.9470720  33.2482599  -3.4757906 -18.0160720  32.1542599
  -8.1547906 -19.9200720  34.9422599  -7.5137906 -20.0130720  35.6472599
  -8.9217906 -19.5340720  35.3652599 -13.5927906 -10.7320720  31.4152599
 -14.5167906 -10.5750720  31.2212599 -13.5847906 -11.0200720  32.3282599
 -14.6237906  -4.4110720  34.2042599 -13.7437906  -4.4960720  34.5702599
 -14.8377906  -3.4830720  34.3052599 -15.6017906 -13.5580720  16.0002599
 -16.1707906 -12.8060720  16.1652599 -14.8437906 -13.4150720  16.5662599
   7.3032094 -13.3990720  22.0362599   7.3802094 -14.3130720  21.7612599
   6.4812094 -13.1000720  21.6482599 -17.9177906  -2.7110720  17.1052599
 -17.5207906  -1.8660720  17.3182599 -17.4037906  -3.0380720  16.3672599
 -21.9347906   7.5689280  11.8312599 -21.6347906   8.0809280  11.0802599
 -21.7747906   6.6589280  11.5812599 -15.9037906 -16.9940720  26.0852599
 -16.3857906 -16.4420720  25.4702599 -16.5307906 -17.1790720  26.7842599
  -7.5617906 -13.2850720  35.9472599  -8.2757906 -13.9180720  36.0182599
  -7.0907906 -13.3600720  36.7772599 -21.1957906 -11.9030720  35.8202599
 -20.4867906 -12.0270720  36.4512599 -20.7597906 -11.5960720  35.0262599
  -7.3697906 -21.4030720  23.8432599  -6.7047906 -22.0530720  24.0722599
  -7.2247906 -20.6840720  24.4572599 -17.6977906 -17.5580720  37.4872599
 -18.6257906 -17.4230720  37.2962599 -17.4637906 -16.8340720  38.0672599
 -18.2447906  -8.8030720  33.9592599 -18.2857906  -7.8570720  34.1012599
 -17.9287906  -8.8960720  33.0602599  -1.2707906 -19.2850720  34.9202599
  -1.6177906 -19.4480720  34.0432599  -1.3697906 -20.1200720  35.3772599
  -7.4967906  -9.5090720  26.9482599  -7.8777906  -8.7510720  27.3922599
  -6.6397906  -9.6220720  27.3592599  -0.5197906  -3.7530720  34.4222599
  -0.6297906  -4.5380720  34.9592599  -0.0967906  -3.1220720  35.0032599
 -13.0967906  -4.3000720  11.2582599 -12.3317906  -4.6750720  10.8222599
 -12.7347906  -3.8030720  11.9922599 -13.1697906   6.2629280  35.5862599
 -13.3557906   6.0129280  34.6812599 -12.4227906   6.8579280  35.5222599
 -15.6017906  -9.7490720  35.0082599 -16.4427906  -9.4280720  34.6802599
 -15.2527906  -9.0230720  35.5242599 -22.6457906 -12.7560720  30.9852599
 -22.9297906 -13.5590720  31.4212599 -22.8317906 -12.0610720  31.6162599
 -12.0357906 -11.5970720  25.9692599 -11.1027906 -11.4040720  25.8752599
 -12.0657906 -12.3750720  26.5252599 -19.2557906 -14.3730720  36.6582599
 -18.4557906 -14.8920720  36.7422599 -19.4017906 -14.3090720  35.7142599
 -21.8217906  -7.3840720  40.2532599 -21.2737906  -6.6200720  40.0712599
 -21.8637906  -7.4270720  41.2082599 -11.4667906  -8.3700720  39.4982599
 -12.1067906  -7.8230720  39.0432599 -10.9087906  -8.7170720  38.8022599
   5.6202094 -20.2470720  28.3862599   5.5632094 -21.1710720  28.6302599
   5.5662094 -19.7760720  29.2182599  -5.8497906  -4.9500720  33.2442599
  -6.0057906  -4.0270720  33.4452599  -4.9497906  -4.9760720  32.9202599
  -6.9787906 -18.2530720  12.1072599  -6.4197906 -19.0290720  12.0692599
  -7.3237906 -18.1620720  11.2192599 -21.9377906 -18.1460720  34.5742599
 -22.2567906 -19.0230720  34.3632599 -21.1747906 -18.0250720  34.0082599
  -8.9197906  -1.8440720  27.8642599  -8.9927906  -1.0390720  27.3512599
  -8.1077906  -2.2500720  27.5592599 -12.2937906 -14.3860720  26.5412599
 -12.2687906 -15.2400720  26.9732599 -12.6717906 -14.5640720  25.6802599
  -7.2547906 -17.3750720  36.7292599  -7.9497906 -16.7170720  36.7402599
  -7.0217906 -17.4630720  35.8052599 -13.4347906 -13.4800720  38.8712599
 -14.0107906 -13.3870720  38.1122599 -12.6257906 -13.0380720  38.6142599
 -14.8657906 -14.4670720  30.3502599 -14.8887906 -15.4230720  30.3232599
 -14.0257906 -14.2580720  30.7602599  -4.3837906   7.8319280  38.9432599
  -4.8697906   7.0139280  38.8402599  -4.0827906   7.8199280  39.8522599
 -21.6907906 -15.5100720  20.2552599 -22.1637906 -15.2430720  19.4672599
 -20.8917906 -14.9830720  20.2462599 -11.6607906   1.3429280  31.3972599
 -11.6277906   0.3949280  31.5202599 -12.2917906   1.4709280  30.6882599
 -20.1377906  -2.7810720  21.5902599 -19.6287906  -2.2340720  22.1882599
 -19.7577906  -2.6110720  20.7282599 -20.6447906 -16.8870720  22.7042599
 -21.1207906 -16.5460720  21.9472599 -20.9687906 -16.3730720  23.4432599
 -11.0847906  -1.1760720  31.8852599 -11.1917906  -2.0490720  31.5082599
 -10.4707906  -1.3010720  32.6102599  -8.9527906 -14.8250720  13.0842599
  -9.7447906 -14.3620720  12.8082599  -9.2617906 -15.4700720  13.7202599
 -17.8127906   7.9559280  28.8582599 -17.6787906   8.1049280  29.7942599
 -18.1977906   8.7719280  28.5382599  -9.7217906 -16.4380720  15.2782599
  -9.1297906 -16.4470720  16.0302599 -10.4147906 -17.0560720  15.5112599
 -19.4857906   3.0409280  29.9822599 -18.6067906   2.6649280  29.9372599
 -19.3957906   3.9089280  29.5892599 -22.7747906  -0.0860720  15.3132599
 -21.8817906  -0.4090720  15.1972599 -23.3227906  -0.7270720  14.8592599
 -18.1347906   0.9259280  27.1992599 -17.5357906   1.6719280  27.2302599
 -17.6017906   0.1799280  27.4752599 -17.0147906  -0.1670720  17.3792599
 -16.3587906   0.2159280  17.9612599 -17.8307906  -0.1290720  17.8782599
   7.1962094   0.3779280  40.4702599   6.5012094   0.4559280  41.1242599
   7.1312094  -0.5230720  40.1562599 -20.5027906  -2.7770720  16.1382599
 -21.1497906  -2.9380720  16.8262599 -19.6577906  -2.9120720  16.5672599
 -16.3167906  -2.6600720  12.9942599 -16.9087906  -2.0450720  12.5612599
 -16.8157906  -3.4750720  13.0492599 -16.9607906   5.8239280  40.5532599
 -17.5567906   5.9869280  39.8212599 -17.4507906   5.2449280  41.1372599
  -6.3757906  -2.4970720  31.8572599  -6.3087906  -3.2080720  31.2202599
  -7.1187906  -1.9740720  31.5562599 -12.4367906   1.9139280  27.7322599
 -13.1847906   1.6429280  28.2642599 -12.2987906   1.1869280  27.1242599
 -13.6457906 -16.1260720  16.3622599 -13.9617906 -15.8930720  15.4892599
 -13.3937906 -17.0460720  16.2892599 -18.5397906  -1.4170720  23.1832599
 -18.9687906  -0.6080720  23.4602599 -17.7787906  -1.4940720  23.7592599
 -19.5657906  -6.0800720  13.8242599 -19.1767906  -5.4220720  13.2482599
 -19.0127906  -6.0720720  14.6052599 -18.6337906  -3.7830720  19.5432599
 -18.5817906  -3.4020720  18.6672599 -19.2207906  -4.5320720  19.4452599
 -12.6487906  -7.2280720  28.5472599 -13.1067906  -8.0650720  28.4672599
 -11.8757906  -7.3230720  27.9912599 -16.1077906   3.3029280  17.6382599
 -15.4987906   2.8199280  17.0802599 -16.7607906   3.6549280  17.0332599
 -22.0317906  -3.7860720  13.6842599 -21.4377906  -3.7310720  14.4332599
 -21.5067906  -3.4950720  12.9392599  -9.9567906 -19.5120720  20.2222599
  -9.1787906 -20.0080720  20.4782599 -10.1737906 -18.9900720  20.9942599
 -22.1977906  -6.8210720  13.0472599 -22.8267906  -6.1100720  13.1662599
 -21.3467906  -6.4210720  13.2242599 -15.1347906  -5.9270720  28.8412599
 -15.4317906  -5.9580720  29.7502599 -14.3577906  -6.4860720  28.8222599
 -18.4477906   0.9979280  21.5192599 -18.9867906   1.4479280  22.1702599
 -17.7567906   1.6249280  21.3052599 -19.5047906   0.7849280  24.7882599
 -19.1677906   1.5409280  24.3072599 -18.9947906   0.7679280  25.5982599
  -2.7267906 -18.5320720  12.0322599  -2.3797906 -19.2160720  11.4592599
  -3.5877906 -18.8560720  12.2972599   5.3642094 -19.1420720  30.7652599
   4.5622094 -19.3550720  31.2432599   5.6162094 -18.2780720  31.0902599
 -21.8207906 -21.5690720  36.3512599 -21.0357906 -21.4980720  35.8082599
 -21.5707906 -21.1750720  37.1872599 -22.0307906  -4.8770720  26.5312599
 -22.6347906  -5.3110720  27.1342599 -22.5057906  -4.1020720  26.2322599
 -12.3797906 -20.1200720  26.3362599 -12.2137906 -20.0920720  27.2792599
 -12.1047906 -19.2600720  26.0192599 -11.5037906  -2.3440720  35.9542599
 -10.7727906  -2.2330720  35.3462599 -11.3327906  -1.7120720  36.6522599
 -19.4817906  -2.1910720  28.8152599 -20.3707906  -1.9980720  29.1142599
 -18.9177906  -1.8870720  29.5252599   3.5252094 -13.0430720  25.3212599
   3.1192094 -12.1760720  25.3412599   2.7872094 -13.6530720  25.3142599
 -19.7067906   0.3819280  18.7942599 -19.3937906   1.1389280  19.2902599
 -20.6607906   0.4589280  18.8152599 -15.7507906  -0.1140720  19.8912599
 -15.5497906   0.6479280  20.4352599 -16.2637906  -0.6870720  20.4612599
 -10.3287906   4.4559280  39.8482599 -10.6537906   4.4119280  40.7472599
 -11.1117906   4.5979280  39.3162599 -11.5427906   4.5309280  27.1402599
 -10.9187906   4.4609280  26.4182599 -11.5427906   3.6619280  27.5432599
 -11.9467906  -3.0920720  13.3782599 -12.1407906  -2.1600720  13.4832599
 -11.2507906  -3.2650720  14.0132599  -9.1687906 -21.1210720  12.4612599
  -9.9497906 -21.3440720  11.9552599  -9.1637906 -20.1640720  12.4872599
 -19.6387906 -20.9810720  15.1882599 -18.6837906 -20.9140720  15.1822599
 -19.9347906 -20.1560720  15.5722599 -13.0067906  -5.6880720  32.4082599
 -13.9167906  -5.4130720  32.5162599 -13.0637906  -6.5970720  32.1142599
 -14.8187906  -0.2420720  25.2742599 -13.9207906  -0.2320720  25.6052599
 -14.8347906   0.4379280  24.6012599 -14.5717906  -1.8390720  35.8772599
 -14.7647906  -2.3790720  36.6442599 -13.6167906  -1.8400720  35.8172599
  -9.8617906 -20.2590720  23.1492599  -9.2387906 -20.9590720  23.3462599
 -10.7057906 -20.6000720  23.4442599 -14.8467906   1.6369280  35.2142599
 -14.1817906   1.1369280  34.7412599 -14.8577906   2.4909280  34.7802599
 -15.6127906 -19.3790720  30.4112599 -15.0607906 -20.1450720  30.2542599
 -16.3637906 -19.7200720  30.8982599  -6.1467906  -9.2810720  11.8112599
  -6.6687906  -8.5260720  11.5382599  -6.5807906  -9.5990720  12.6032599
 -11.3687906  -5.7000720  34.5582599 -10.7247906  -5.1750720  34.0822599
 -12.0267906  -5.9260720  33.9012599 -16.0437906   6.9089280  24.8472599
 -15.4527906   7.6419280  25.0212599 -16.8487906   7.1339280  25.3132599
 -13.0427906   1.0369280  37.2942599 -13.5297906   1.0749280  36.4702599
 -13.0797906   1.9299280  37.6362599   4.5402094 -21.2540720  23.4472599
   4.6972094 -21.8910720  24.1442599   5.1242094 -20.5240720  23.6532599
 -21.3587906   8.1469280  26.5072599 -21.3797906   9.0979280  26.6182599
 -20.5277906   7.9759280  26.0642599 -15.9797906  -1.0220720  28.5042599
 -15.3617906  -1.7190720  28.2852599 -16.5377906  -1.4000720  29.1842599
 -14.4547906 -17.3860720  12.4742599 -14.3637906 -16.7430720  13.1772599
 -15.2757906 -17.8400720  12.6682599 -16.6797906   1.9419280  30.7142599
 -16.4857906   1.7249280  29.8022599 -15.8527906   2.2779280  31.0622599
  -5.4247906   0.7999280  38.0402599  -5.1737906   1.3089280  38.8112599
  -4.6917906   0.9069280  37.4332599 -21.1317906   6.8859280  18.1962599
 -20.4627906   6.3769280  17.7402599 -21.9167906   6.3399280  18.1582599
 -19.4587906   3.1449280  19.6802599 -19.0567906   3.9809280  19.9152599
 -20.2947906   3.3849280  19.2792599 -21.3997906   5.1909280  11.0102599
 -20.6237906   5.5039280  10.5452599 -21.5777906   4.3319280  10.6282599
 -21.3007906  -2.5040720  24.2202599 -21.9907906  -2.1190720  23.6802599
 -20.8077906  -3.0610720  23.6172599 -18.8677906   5.3029280  28.7602599
 -19.0497906   5.2559280  27.8222599 -18.3597906   6.1079280  28.8652599
  -9.5327906   0.4879280  26.2262599 -10.4847906   0.3949280  26.2512599
  -9.2927906   0.2619280  25.3282599 -19.3717906 -15.3830720  12.5192599
 -18.8097906 -14.7160720  12.1242599 -18.8367906 -15.7650720  13.2152599
 -15.6177906   0.9109280  38.7272599 -16.2047906   0.8009280  37.9792599
 -14.7387906   0.8359280  38.3542599 -22.6757906 -18.0050720  16.4512599
 -22.8207906 -18.9190720  16.2092599 -22.7397906 -17.9970720  17.4062599
  -7.4727906  -0.7110720  38.7482599  -8.1047906  -0.0350720  38.5062599
  -6.6327906  -0.3800720  38.4282599  -2.9087906 -21.2730720  36.9292599
  -3.5057906 -21.5110720  37.6382599  -2.5167906 -20.4470720  37.2122599
 -14.1167906 -16.6280720  36.8332599 -14.2467906 -16.7290720  37.7762599
 -14.8457906 -16.0770720  36.5472599 -17.7577906 -20.5640720  38.2312599
 -17.5757906 -19.7550720  37.7542599 -17.8887906 -21.2210720  37.5472599
 -10.1967906   0.4849280  35.1412599 -10.0997906   0.2059280  36.0522599
  -9.6727906  -0.1410720  34.6412599 -18.0647906   4.8659280  12.6952599
 -17.9817906   4.1449280  13.3192599 -18.8847906   5.2969280  12.9332599
 -15.8177906  -5.5690720  31.3482599 -16.3917906  -5.8270720  32.0702599
 -15.8187906  -4.6120720  31.3722599  -9.2747906  -4.5670720  32.9602599
  -8.7117906  -5.1770720  33.4372599  -9.3837906  -4.9660720  32.0972599
  -9.3297906  -2.0840720  34.1382599  -9.2107906  -2.8930720  33.6402599
  -8.6167906  -2.0870720  34.7762599 -17.2947906  -0.7000720  11.2482599
 -18.1997906  -0.6610720  10.9382599 -16.9437906   0.1729280  11.0742599
 -18.8927906   2.1689280  38.5182599 -19.0377906   1.2329280  38.3782599
 -18.2057906   2.2089280  39.1832599   0.5282094   3.8039280  36.8832599
   1.0612094   4.2209280  36.2052599  -0.1687906   4.4349280  37.0612599
  -1.7127906   5.6329280  36.8922599  -2.0607906   5.7749280  36.0122599
  -1.4627906   6.5059280  37.1952599 -11.1547906   7.9239280  35.7372599
 -11.2927906   8.7119280  36.2632599 -10.2187906   7.7409280  35.8202599
 -17.1857906   3.9679280  32.6812599 -16.6777906   4.3629280  31.9722599
 -17.5457906   3.1669280  32.3012599 -14.3527906 -19.0100720  35.5432599
 -14.7207906 -19.7520720  36.0222599 -14.3437906 -18.2950720  36.1792599
 -19.2427906  -0.5910720  38.5452599 -20.1167906  -0.7040720  38.1722599
 -18.6487906  -0.9030720  37.8642599   1.7082094  -4.5630720  33.0032599
   2.3082094  -5.2570720  33.2762599   0.8802094  -4.7770720  33.4322599
 -11.1147906  -1.4850720  40.3872599 -12.0027906  -1.6650720  40.0782599
 -10.8037906  -2.3230720  40.7272599 -12.1757906  -0.4890720  26.3622599
 -11.7617906  -1.2380720  26.7902599 -11.9237906  -0.5680720  25.4422599
 -15.0117906  -3.9570720  37.5802599 -14.8617906  -3.4710720  38.3912599
 -14.1417906  -4.2510720  37.3112599  -8.1187906   6.0369280  40.0682599
  -9.0167906   5.7969280  40.2952599  -8.2097906   6.6289280  39.3212599
 -14.8007906   4.0489280  39.7232599 -15.4657906   4.4339280  40.2942599
 -15.2437906   3.9319280  38.8832599 -22.9147906   4.1279280  33.5692599
 -23.0277906   3.3319280  34.0882599 -21.9747906   4.1679280  33.3922599
   3.9582094 -17.8990720  33.3412599   3.9602094 -18.7270720  33.8212599
   4.5422094 -17.3300720  33.8412599 -17.3267906  -4.5360720  36.0732599
 -17.4357906  -5.4430720  36.3612599 -16.4687906  -4.2790720  36.4112599
 -12.8937906 -18.0100720  32.4382599 -13.6977906 -18.1030720  32.9492599
 -12.3037906 -18.6740720  32.7942599 -11.4747906   7.3879280  38.5122599
 -12.4247906   7.3819280  38.3942599 -11.1217906   7.2329280  37.6362599
 -14.3287906  -8.9070720  23.3892599 -14.0547906  -8.3530720  22.6592599
 -13.5637906  -9.4510720  23.5782599 -17.9437906   0.4419280  15.1072599
 -17.3287906   0.7729280  14.4522599 -17.4247906   0.3709280  15.9092599
 -21.6287906   2.3039280  12.8962599 -21.1087906   1.8079280  12.2642599
 -21.1907906   2.1579280  13.7342599 -21.5367906  -0.6430720  32.9402599
 -21.2867906  -1.3110720  32.3022599 -20.8507906   0.0209280  32.8742599
 -15.3997906   4.6379280  30.6712599 -15.3877906   5.0849280  29.8252599
 -14.5707906   4.8829280  31.0832599 -11.9677906 -19.3730720  38.7432599
 -12.8477906 -19.5720720  38.4232599 -12.0917906 -19.1540720  39.6662599
 -10.6517906  -0.4700720  37.7862599 -11.4587906   0.0249280  37.6422599
 -10.3737906  -0.2240720  38.6682599 -20.9027906   4.4789280  37.0522599
 -21.7827906   4.8169280  36.8902599 -21.0027906   3.9029280  37.8102599
 -15.9077906   8.0949280  35.0162599 -15.4077906   7.5609280  35.6332599
 -15.2757906   8.3359280  34.3392599  -6.9337906 -19.4600720  32.3132599
  -7.2977906 -19.6080720  33.1862599  -6.0297906 -19.7680720  32.3752599
 -13.9177906   0.1069280  30.4712599 -14.5817906   0.0269280  29.7862599
 -13.8267906  -0.7790720  30.8222599  -8.2777906 -18.2070720  39.3512599
  -8.6407906 -19.0760720  39.1752599  -7.7587906 -18.0030720  38.5732599
  -5.7107906  -5.8390720  36.5212599  -5.0377906  -5.1590720  36.4792599
  -6.5187906  -5.3650720  36.7162599  -9.7477906 -20.0100720  30.6142599
  -8.8477906 -19.9600720  30.9372599  -9.8727906 -20.9330720  30.3942599
 -14.5597906 -20.2970720  38.7572599 -15.2167906 -20.1560720  39.4392599
 -14.6237906 -21.2310720  38.5532599 -12.6767906   0.4499280  33.7802599
 -12.5167906   0.9349280  32.9702599 -11.8167906   0.3849280  34.1952599
  -4.3257906 -13.5360720  12.2212599  -3.6127906 -13.1820720  12.7522599
  -4.7617906 -12.7640720  11.8592599  -7.6807906  -4.3030720  37.0102599
  -7.5717906  -3.8720720  37.8582599  -8.2677906  -5.0370720  37.1882599
 -15.5337906   4.8469280  36.9092599 -16.4587906   4.7209280  36.6962599
 -15.0927906   4.8619280  36.0602599 -15.6727906   5.9829280  28.2982599
 -15.9837906   5.7119280  27.4342599 -16.2717906   6.6819280  28.5602599
   2.2812094 -18.5510720  36.0182599   1.9472094 -18.8700720  35.1802599
   2.8242094 -19.2670720  36.3482599 -13.7267906 -20.3880720  11.7892599
 -14.4107906 -21.0580720  11.7652599 -14.1397906 -19.6100720  11.4162599
 -14.3897906   7.0229280  38.4112599 -14.7157906   6.4389280  37.7262599
 -14.7917906   6.6959280  39.2162599  -9.6907906  -6.3290720  36.9732599
  -9.8127906  -7.2780720  36.9502599  -9.6097906  -6.0760720  36.0532599
 -17.3107906 -21.3880720  31.5112599 -17.6607906 -20.7610720  32.1442599
 -17.4487906 -22.2430720  31.9202599  -8.1417906 -13.7680720  15.9692599
  -7.4497906 -13.8890720  15.3192599  -8.4127906 -14.6570720  16.1982599
 -10.5697906 -15.2180720  18.4912599  -9.7487906 -15.6450720  18.2482599
 -11.2357906 -15.6620720  17.9662599 -12.0387906 -15.3530720  40.5802599
 -11.6917906 -14.6750720  41.1592599 -12.6587906 -14.8920720  40.0142599
  -3.4357906 -14.0180720  23.4062599  -3.2487906 -13.5850720  22.5732599
  -3.8327906 -13.3360720  23.9482599   7.1262094  -8.6310720  30.7712599
   6.4282094  -8.0150720  30.5472599   6.7362094  -9.4940720  30.6322599
   0.6242094 -13.4640720  25.2142599   0.2502094 -13.0960720  24.4132599
   0.2582094 -14.3470720  25.2662599   4.6662094 -17.5700720  21.2672599
   4.5242094 -17.2700720  20.3702599   4.9012094 -18.4940720  21.1782599
   1.0292094 -13.6530720  21.7472599   0.4522094 -13.0790720  21.2442599
   1.6902094 -13.9400720  21.1172599   1.3272094 -20.2140720  21.5562599
   0.4112094 -20.0950720  21.8062599   1.2972094 -20.8220720  20.8182599
   0.0122094   0.2819280  40.5162599   0.2972094  -0.4030720  41.1222599
   0.5852094   0.1819280  39.7562599 -22.7517906 -14.8360720  28.1972599
 -22.0337906 -14.2320720  28.3862599 -23.0947906 -14.5430720  27.3532599
  -4.1897906 -16.6740720  23.1222599  -3.6197906 -17.0810720  22.4692599
  -3.8157906 -15.8030720  23.2582599   4.9482094 -18.7790720  14.5632599
   5.4032094 -19.5460720  14.2152599   4.2282094 -18.6290720  13.9512599
  -6.9427906 -14.5470720  11.2742599  -7.6097906 -14.7120720  11.9412599
  -6.3557906 -13.9070720  11.6752599  -3.2787906  -4.3240720  37.2602599
  -2.5207906  -4.6910720  36.8052599  -3.2747906  -4.7520720  38.1162599
   3.1272094 -16.1280720  25.3822599   3.3462094 -15.7250720  24.5422599
   2.9502094 -17.0440720  25.1702599   2.6382094 -14.5940720  16.1132599
   2.0732094 -15.3570720  15.9922599   2.9512094 -14.3850720  15.2322599
 -22.3497906   1.3269280  23.8722599 -22.5997906   0.4189280  23.7022599
 -21.4527906   1.2719280  24.2012599  -8.0147906 -10.3050720  31.1092599
  -8.6917906  -9.8320720  30.6252599  -7.4347906  -9.6190720  31.4422599
  -6.1047906 -14.5580720  14.5002599  -5.6157906 -14.0490720  13.8532599
  -6.0277906 -15.4640720  14.2002599 -17.1967906 -17.6480720  28.5762599
 -16.6827906 -18.1490720  29.2082599 -17.7027906 -18.3080720  28.1012599
   2.4842094 -15.9470720  30.3532599   3.3592094 -16.2820720  30.1572599
   2.1092094 -15.7400720  29.4972599 -12.3047906 -14.4290720  31.5282599
 -11.4647906 -14.7710720  31.2202599 -12.1837906 -14.3090720  32.4702599
 -17.3817906 -12.6390720  23.9602599 -18.2677906 -12.7200720  24.3122599
 -17.4057906 -11.8410720  23.4312599   6.7202094 -20.8640720  13.9902599
   7.3832094 -20.8010720  13.3032599   6.3302094 -21.7300720  13.8682599
  -3.6917906 -10.2430720  24.4502599  -4.0817906 -10.1650720  23.5792599
  -4.0497906  -9.5040720  24.9412599   0.6382094  -4.9500720  28.5342599
   0.1972094  -4.3180720  27.9662599   0.0302094  -5.0840720  29.2612599
 -21.5697906   3.8179280  21.7032599 -20.9287906   3.2349280  21.2962599
 -22.3717906   3.2979280  21.7512599 -22.2537906 -18.1270720  12.7202599
 -21.9087906 -17.6220720  11.9842599 -23.1927906 -18.1940720  12.5462599
  -4.7957906 -14.5570720  37.8332599  -5.4867906 -15.0030720  38.3222599
  -4.7127906 -15.0590720  37.0222599   2.7482094 -10.4320720  26.0892599
   2.3062094 -10.9670720  26.7482599   2.0462094  -9.9220720  25.6842599
 -21.1167906  -7.0010720  16.2682599 -21.7387906  -7.0510720  15.5412599
 -21.0507906  -7.9000720  16.5892599   3.9302094 -17.9500720  28.4762599
   3.6532094 -17.4810720  27.6892599   3.2342094 -18.5870720  28.6342599
  -2.9167906 -13.7810720  39.8482599  -3.3567906 -14.0460720  39.0402599
  -3.5387906 -13.9950720  40.5422599  -1.5457906 -20.8080720  19.1972599
  -1.4127906 -20.4640720  20.0802599  -2.2207906 -21.4790720  19.3012599
   1.3712094 -17.1340720  39.8892599   1.1072094 -16.5420720  39.1852599
   0.6222094 -17.1460720  40.4862599   4.2082094 -20.9490720  33.9702599
   3.2992094 -21.1910720  33.7912599   4.6462094 -21.7800720  34.1542599
   0.5502094 -16.5190720  22.4292599   0.9522094 -15.6830720  22.1912599
   1.2912094 -17.0990720  22.6072599   2.1632094 -20.5350720  30.7272599
   1.8602094 -20.1670720  29.8972599   1.6632094 -20.0660720  31.3952599
   3.5092094 -14.0710720  34.5562599   3.4892094 -14.8110720  35.1622599
   4.2922094 -13.5790720  34.8042599 -22.6387906  -9.7310720  22.2202599
 -22.3717906  -9.9590720  23.1102599 -21.9127906  -9.2110720  21.8772599
  -6.1587906 -11.9950720  17.7142599  -6.5267906 -12.4620720  16.9632599
  -5.2547906 -12.3030720  17.7692599 -18.0197906   4.2489280  15.8622599
 -18.4597906   5.0729280  16.0742599 -18.7327906   3.6309280  15.7022599
 -22.7817906 -15.2290720  17.9032599 -23.3597906 -15.6700720  17.2792599
 -22.1037906 -14.8270720  17.3592599 -17.4017906 -19.9250720  24.7152599
 -16.4597906 -20.0180720  24.5682599 -17.6927906 -19.3190720  24.0342599
  -1.8337906 -10.2130720  38.7182599  -1.3277906 -10.8250720  39.2522599
  -1.3407906 -10.1440720  37.9002599 -10.7717906 -17.7750720  10.9232599
 -11.3637906 -17.0520720  10.7162599 -10.0967906 -17.7340720  10.2452599
   1.6472094 -19.4770720  28.1802599   1.8852094 -19.3800720  27.2582599
   1.1072094 -20.2670720  28.2072599 -14.2627906 -17.1650720  30.0422599
 -13.6557906 -17.4680720  30.7182599 -14.9977906 -17.7770720  30.0892599
   4.8612094 -14.3340720  39.1072599   5.3802094 -13.5600720  38.8872599
   4.7012094 -14.7640720  38.2672599  -0.6957906 -15.3400720  27.0752599
  -1.2367906 -14.7460720  27.5952599  -1.1317906 -15.3800720  26.2242599
  -5.7667906 -11.7870720  40.7092599  -5.8797906 -10.8500720  40.8642599
  -5.4527906 -11.8450720  39.8062599   5.1822094 -20.0200720  19.9102599
   4.8562094 -20.7900720  20.3752599   4.7732094 -20.0700720  19.0462599
 -18.6277906  -2.3030720  26.1762599 -19.5377906  -2.1050720  25.9552599
 -18.5757906  -2.1710720  27.1222599  -1.2407906  -5.4760720  30.0752599
  -1.5537906  -5.0090720  30.8492599  -0.7847906  -6.2420720  30.4242599
   1.7762094  -8.7600720  28.6732599   2.5182094  -9.2720720  28.3502599
   2.1762094  -8.0450720  29.1692599 -20.1167906 -17.4740720  32.4852599
 -20.5067906 -17.9770720  31.7702599 -19.8127906 -16.6660720  32.0702599
   7.2192094 -12.2080720  17.9612599   6.2832094 -12.3100720  18.1332599
   7.3592094 -12.6530720  17.1262599 -10.6727906 -14.1080720  22.8362599
  -9.7327906 -14.1330720  22.6572599 -10.8457906 -14.9140720  23.3222599
   5.1812094 -12.6290720  29.3272599   6.0722094 -12.7770720  29.6462599
   4.6292094 -13.1560720  29.9052599   3.1222094  -0.4650720  39.5502599
   2.6172094  -0.5460720  38.7422599   3.6242094   0.3429280  39.4402599
 -20.1757906 -12.6370720  19.2482599 -19.7527906 -12.4350720  20.0832599
 -21.0417906 -12.2360720  19.3152599 -20.8457906 -13.3120720  29.0412599
 -19.9947906 -12.9080720  29.2092599 -21.4037906 -13.0020720  29.7542599
   4.6912094 -15.6060720  23.2902599   4.8222094 -16.4310720  22.8222599
   4.6202094 -14.9470720  22.5992599 -16.7467906 -18.0590720  13.9492599
 -17.0997906 -17.1950720  14.1632599 -17.4367906 -18.4780720  13.4342599
  -2.6497906 -18.3150720  17.7882599  -2.0237906 -18.8810720  18.2412599
  -3.3837906 -18.2340720  18.3962599 -16.9257906 -11.2830720  15.9782599
 -17.1767906 -10.7270720  16.7162599 -16.9397906 -10.6980720  15.2212599
  -0.6477906 -13.7960720  19.2492599   0.2662094 -14.0800720  19.2172599
  -0.6847906 -13.0400720  18.6632599   4.2982094 -13.6410720  21.3732599
   3.8572094 -12.9040720  21.7962599   4.4732094 -13.3360720  20.4822599
   1.6182094 -13.3310720  10.7802599   2.1872094 -12.7310720  10.2982599
   2.1372094 -13.5950720  11.5402599  -2.3667906 -15.8390720  16.5652599
  -2.1227906 -16.6250720  17.0532599  -1.5317906 -15.4640720  16.2822599
 -18.7137906  -4.3300720  31.5182599 -19.2547906  -3.9340720  30.8352599
 -18.0277906  -3.6830720  31.6862599  -7.7417906 -18.4540720  22.5872599
  -6.8817906 -18.8620720  22.4842599  -8.2357906 -19.0680720  23.1312599
 -21.5577906 -14.7530720  24.7772599 -22.4457906 -14.8260720  25.1242599
 -21.2647906 -13.8830720  25.0472599 -21.6087906  -3.2320720  18.7732599
 -21.0257906  -3.1040720  19.5222599 -22.3987906  -3.6220720  19.1472599
 -11.9617906  -3.5210720  31.1782599 -11.2957906  -3.6870720  30.5112599
 -12.1197906  -4.3760720  31.5782599   1.9752094 -19.4490720  16.5132599
   1.3712094 -20.1920720  16.5262599   2.8452094 -19.8480720  16.5182599
 -17.6437906  -7.0450720  26.9922599 -16.9717906  -7.1270720  27.6682599
 -18.3927906  -6.6560720  27.4432599   0.0342094  -7.1800720  39.9002599
   0.2602094  -6.2700720  40.0952599  -0.4727906  -7.1320720  39.0902599
   1.6922094 -17.7780720  18.9512599   1.8532094 -18.4380720  18.2772599
   2.5562094 -17.6010720  19.3252599  -1.3917906 -15.6050720  24.3402599
  -2.0677906 -15.1100720  23.8772599  -0.7737906 -15.8640720  23.6562599
 -18.4067906 -10.6940720  11.6622599 -19.1127906 -10.1210720  11.9612599
 -17.6887906 -10.5300720  12.2742599   4.4252094 -16.5940720  18.6752599
   4.5782094 -15.6730720  18.8882599   4.7482094 -16.6890720  17.7792599
   1.3262094 -12.5930720  34.9902599   0.6502094 -13.1340720  34.5832599
   2.1082094 -13.1450720  34.9902599   0.0362094  -7.9920720  30.5742599
   0.7482094  -8.2930720  30.0092599  -0.7057906  -8.5510720  30.3432599
   0.4462094 -21.0950720  24.8392599   0.8912094 -21.8020720  24.3722599
   1.1362094 -20.4590720  25.0262599 -21.8977906  -9.3660720  14.1272599
 -22.0457906  -8.7040720  13.4522599 -22.5677906 -10.0300720  13.9632599
  -6.5507906 -15.9010720  22.4192599  -5.6567906 -16.2110720  22.5592599
  -7.0857906 -16.6940720  22.4402599   2.4482094 -19.0420720  25.7642599
   3.3472094 -19.3660720  25.8282599   2.3002094 -18.9290720  24.8252599
  -4.4157906 -19.7970720  15.1212599  -4.6407906 -20.5320720  15.6912599
  -3.4597906 -19.7570720  15.1482599   5.1762094 -12.3510720  36.0332599
   5.7672094 -12.3000720  36.7842599   4.6632094 -11.5440720  36.0762599
  -2.9027906 -13.1970720  20.6802599  -2.9027906 -12.3130720  20.3132599
  -2.1987906 -13.6490720  20.2172599  -0.1207906 -10.1940720  36.7662599
  -0.0487906 -11.0080720  36.2672599   0.7712094 -10.0160720  37.0652599
  -4.2587906  -2.6380720  35.2962599  -4.0187906  -3.2640720  35.9802599
  -3.4597906  -2.1360720  35.1392599 -21.8337906  -9.7800720  17.0802599
 -22.0067906  -9.9950720  16.1632599 -21.9747906 -10.6020720  17.5502599
  -4.2677906 -15.3290720  19.5602599  -4.1257906 -15.2590720  18.6162599
  -3.9537906 -14.4970720  19.9132599  -5.2297906 -19.4470720  22.3132599
  -5.2767906 -19.6390720  23.2502599  -5.3707906 -20.2920720  21.8882599
   0.2752094 -15.5190720  12.9002599   0.3052094 -14.6010720  13.1692599
  -0.2357906 -15.5160720  12.0912599   0.2802094 -16.9830720  37.2312599
   0.9802094 -17.4110720  36.7392599  -0.3567906 -16.7230720  36.5662599
   7.1872094 -18.2520720  19.3492599   6.4752094 -18.8770720  19.4862599
   6.8112094 -17.4040720  19.5832599 -14.8897906 -20.6350720  17.6752599
 -14.4267906 -20.1600720  18.3652599 -15.2007906 -19.9520720  17.0812599
   3.2502094 -15.3620720  13.4872599   3.9632094 -15.0880720  12.9102599
   2.6632094 -15.8630720  12.9212599   5.5532094 -16.0970720  29.9152599
   5.9912094 -15.5710720  29.2462599   5.2472094 -16.8740720  29.4472599
  -9.1067906 -20.7560720  39.4082599 -10.0037906 -20.8890720  39.7132599
  -8.5677906 -20.8720720  40.1912599  -1.8707906 -17.1800720  28.3692599
  -2.2307906 -17.6580720  27.6222599  -1.2887906 -16.5280720  27.9782599
  -3.2607906  -8.1090720  39.9342599  -3.1917906  -8.6310720  40.7342599
  -2.8737906  -8.6600720  39.2542599   1.0012094  -4.7750720  40.3282599
   0.9642094  -4.1820720  41.0782599   1.8422094  -4.5850720  39.9122599
 -20.2097906  -5.1790720  38.2192599 -20.4437906  -5.5220720  37.3572599
 -19.2777906  -5.3790720  38.3122599  -1.3927906  -8.3570720  34.8682599
  -1.1917906  -9.2230720  35.2242599  -1.5337906  -8.5080720  33.9342599
   1.5712094  -5.1130720  37.1342599   1.6862094  -4.2270720  36.7922599
   1.2252094  -4.9860720  38.0182599   6.3632094 -11.1860720  33.0992599
   5.4712094 -10.9760720  32.8222599   6.2812094 -11.4020720  34.0282599
   4.7032094  -9.9150720  29.4412599   4.7722094 -10.8680720  29.3812599
   4.7922094  -9.7260720  30.3752599   5.3062094  -8.4880720  34.5982599
   5.9492094  -8.8880720  35.1852599   4.6402094  -8.1270720  35.1832599
 -21.8367906  -7.6410720  37.4102599 -21.5347906  -7.5540720  38.3142599
 -21.0687906  -7.9490720  36.9292599   1.3002094 -19.8290720  38.7292599
   1.9682094 -20.1340720  38.1152599   1.5932094 -18.9550720  38.9872599
 -22.1297906 -17.0830720  37.1942599 -21.9907906 -17.2290720  36.2592599
 -21.9357906 -16.1550720  37.3242599 -19.8957906 -11.3080720  33.5342599
 -20.4867906 -10.7400720  33.0392599 -19.3127906 -10.7040720  33.9942599
  -1.6187906 -16.5640720  35.0222599  -2.4627906 -16.3000720  35.3872599
  -1.5567906 -17.5000720  35.2122599   3.7312094 -15.9850720  36.5532599
   3.0082094 -16.5980720  36.4202599   4.5102094 -16.4700720  36.2802599
 -20.1637906 -14.4920720  33.9442599 -19.8967906 -13.6800720  33.5122599
 -20.7087906 -14.9400720  33.2962599   4.1962094 -13.8100720  31.5242599
   4.3512094 -13.9970720  32.4502599   3.3622094 -14.2390720  31.3302599
 -19.5777906  -2.8660720  35.4052599 -20.2027906  -3.5900720  35.4292599
 -18.7297906  -3.2730720  35.5822599 -17.6297906  -6.3190720  39.3452599
 -17.5627906  -6.9180720  38.6022599 -16.7217906  -6.1470720  39.5962599
  -0.6257906 -14.2150720  33.8482599  -0.1797906 -14.3340720  33.0102599
  -0.8277906 -15.1040720  34.1412599   3.2702094  -6.5880720  33.5262599
   4.0172094  -6.9950720  33.0872599   3.3552094  -6.8550720  34.4412599
 -21.0987906 -16.8160720  14.8412599 -21.4197906 -17.2330720  14.0412599
 -21.7267906 -17.0750720  15.5152599 -16.6507906  -0.0330720  35.9932599
 -16.1897906   0.7449280  35.6802599 -16.0117906  -0.7410720  35.9072599
   5.0762094 -18.6250720  11.4032599   4.3262094 -19.1980720  11.5642599
   4.7582094 -17.7480720  11.6142599  -5.2237906 -15.6190720  32.4792599
  -4.8857906 -16.5130720  32.5292599  -4.5727906 -15.1440720  31.9622599
  -4.1797906 -17.7710720  38.3132599  -3.3667906 -18.2690720  38.2282599
  -4.2267906 -17.5440720  39.2422599   6.4052094  -9.8540720  36.8952599
   6.5732094 -10.4100720  37.6562599   6.7632094  -9.0000720  37.1382599
  -2.7447906 -14.9620720  31.2912599  -2.4017906 -15.8240720  31.0562599
  -1.9657906 -14.4270720  31.4432599   6.6012094 -18.3980720  26.6862599
   6.4242094 -19.1790720  27.2112599   6.0942094 -17.7050720  27.1102599
   3.3292094  -9.1660720  38.2412599   2.6202094  -9.3310720  38.8622599
   4.0902094  -8.9760720  38.7892599  -4.9327906 -13.9390720  34.7362599
  -5.0547906 -14.8880720  34.7062599  -5.7967906 -13.5930720  34.9622599
  -1.2487906  -5.8810720  36.0342599  -0.5707906  -6.0610720  36.6852599
  -1.4257906  -6.7310720  35.6302599   7.0372094 -18.9700720  39.3222599
   6.4992094 -18.6400720  40.0412599   6.9072094 -18.3380720  38.6152599
   1.1882094 -16.8570720  15.6852599   1.0722094 -17.0410720  14.7532599
   1.4352094 -17.6990720  16.0672599   5.8852094 -16.5830720  34.5872599
   6.4162094 -15.8990720  34.9962599   6.4582094 -17.3490720  34.5622599
 -20.2957906 -17.7730720  39.6082599 -20.4727906 -16.8340720  39.6512599
 -20.8077906 -18.0810720  38.8602599 -12.9227906  -9.7580720  27.7932599
 -12.6117906 -10.3400720  28.4862599 -12.6897906 -10.2080720  26.9802599
 -20.5587906  -5.6020720  35.3262599 -21.3197906  -6.0950720  35.0212599
 -19.8057906  -6.1120720  35.0272599  -2.6767906  -5.3440720  39.5922599
  -2.8907906  -6.2590720  39.4132599  -2.2357906  -5.3620720  40.4422599
  -2.8097906 -12.3600720  34.0232599  -2.0117906 -12.8880720  34.0702599
  -3.5087906 -12.9590720  34.2872599   0.7932094  -8.8430720  24.8072599
   0.4942094  -8.9360720  23.9032599   1.0532094  -7.9250720  24.8812599
  -0.8857906  -3.1050720  38.0382599  -1.1267906  -2.3460720  38.5692599
  -1.6067906  -3.7230720  38.1602599  -2.1527906  -0.9100720  39.1672599
  -2.0057906  -0.6310720  40.0702599  -2.2477906  -0.0940720  38.6752599
   0.2842094 -14.4700720  31.3462599   0.7592094 -13.7740720  30.8922599
   0.7702094 -15.2680720  31.1362599 -22.6917906 -14.3900720  35.6502599
 -21.8117906 -14.2560720  35.2962599 -23.1347906 -13.5520720  35.5152599
  -1.5297906 -17.3510720  20.8512599  -0.6417906 -17.1330720  21.1342599
  -1.8557906 -16.5470720  20.4452599 -17.5347906 -10.0080720  18.1622599
 -17.9677906 -10.6410720  18.7362599 -17.2377906  -9.3150720  18.7512599
 -16.7607906 -15.5250720  23.6042599 -16.0507906 -15.6380720  22.9722599
 -16.8327906 -14.5780720  23.7182599   3.0652094  -7.3450720  35.9962599
   3.1072094  -7.9670720  36.7232599   2.5412094  -6.6190720  36.3332599
 -22.3037906 -11.7980720  24.5122599 -22.9857906 -11.7830720  25.1842599
 -22.5877906 -12.4750720  23.8972599  -0.8057906  -7.6170720  26.7322599
  -0.1647906  -8.1850720  26.3042599  -0.3227906  -7.2130720  27.4532599
  -1.4617906   2.0199280  37.7692599  -0.7607906   2.5739280  37.4252599
  -1.9927906   2.6089280  38.3042599 -19.6757906  -5.6550720  28.0562599
 -19.5247906  -4.8280720  28.5132599 -20.4887906  -5.5160720  27.5702599
   1.3012094 -17.8480720  31.7372599   1.7752094 -17.0880720  31.3982599
   1.7292094 -18.0450720  32.5702599 -22.9387906 -12.3360720  38.0642599
 -22.3727906 -12.0670720  37.3402599 -22.3597906 -12.8150720  38.6572599
  -9.0707906 -15.1110720  26.2532599  -8.5677906 -14.7160720  25.5412599
  -9.3847906 -14.3660720  26.7662599   5.3752094  -9.0470720  39.9632599
   6.2252094  -8.6080720  39.9592599   5.3922094  -9.5960720  40.7472599
 -18.8987906  -7.2480720  30.7102599 -19.4887906  -6.5180720  30.8952599
 -18.9427906  -7.3570720  29.7602599  -3.4597906 -12.4690720  30.5792599
  -3.8427906 -11.6660720  30.9322599  -3.7007906 -13.1480720  31.2102599
  -5.5967906 -19.3220720  24.8772599  -5.3557906 -19.8800720  25.6172599
  -5.8167906 -18.4790720  25.2742599 -17.3517906  -7.2470720  36.7512599
 -17.9617906  -7.8820720  36.3742599 -16.5447906  -7.7420720  36.8882599
 -16.6367906 -17.9180720  34.4752599 -15.7807906 -18.1300720  34.8482599
 -17.1857906 -17.7190720  35.2332599 -22.1617906  -7.4400720  34.1392599
 -23.1007906  -7.6160720  34.1952599 -21.8317906  -8.0930720  33.5222599
 -20.7587906  -9.0590720  32.2862599 -20.0347906  -8.5150720  31.9772599
 -21.4937906  -8.8250720  31.7202599   4.6612094 -13.2680720  17.9912599
   4.2662094 -12.5080720  17.5632599   4.6402094 -13.9550720  17.3252599
 -18.1737906 -13.3580720  10.9752599 -18.2627906 -12.4220720  11.1542599
 -17.2327906 -13.5240720  11.0302599 -19.2337906 -16.2700720  25.3372599
 -18.5257906 -15.8170720  24.8782599 -19.9657906 -15.6530720  25.3182599
  -8.4447906 -12.9690720  31.1052599  -8.3857906 -12.0170720  31.1822599
  -8.4147906 -13.1360720  30.1632599 -20.3787906   7.8839280  31.9362599
 -21.0457906   7.1989280  31.9182599 -20.6687906   8.5189280  31.2812599
   4.3222094  -9.1820720  32.0462599   3.5412094  -9.6690720  32.3092599
   4.8922094  -9.2080720  32.8142599 -21.1027906 -17.0050720  27.9762599
 -21.5447906 -17.4510720  27.2532599 -21.7317906 -16.3470720  28.2722599
 -19.0267906 -18.4250720  16.1552599 -18.0727906 -18.3480720  16.1882599
 -19.3097906 -17.6800720  15.6252599  -0.5027906 -11.2080720  32.3782599
  -1.0917906 -10.4580720  32.2882599  -1.0497906 -11.8980720  32.7552599
  -3.2587906 -21.5050720  27.8512599  -2.9607906 -21.2150720  26.9892599
  -4.1327906 -21.1270720  27.9432599  -6.5757906 -18.9710720  17.6502599
  -6.3147906 -19.8470720  17.3672599  -5.7557906 -18.5440720  17.8962599
  -4.9577906 -17.9150720  19.4372599  -4.7907906 -16.9850720  19.5932599
  -5.1177906 -18.2800720  20.3072599  -1.1137906 -21.5520720  30.0202599
  -0.5017906 -21.7660720  29.3152599  -1.8567906 -21.1430720  29.5762599
  -1.6987906 -19.4530720  15.3532599  -1.7017906 -18.9040720  16.1382599
  -1.2517906 -18.9240720  14.6922599  -0.8047906 -11.4240720  26.8342599
  -0.8297906 -11.2450720  25.8932599   0.0752094 -11.7690720  26.9892599
 -21.7797906   4.0399280  24.5852599 -22.6037906   3.6759280  24.9072599
 -21.5817906   3.5279280  23.8012599 -20.8787906   8.1239280  29.2562599
 -20.5657906   7.2199280  29.2692599 -21.3017906   8.2189280  28.4022599
 -21.6567906  -3.1030720  30.6542599 -22.5417906  -2.7830720  30.4802599
 -21.7777906  -4.0180720  30.9092599 -20.7327906   6.7699280  14.1222599
 -21.1647906   7.2109280  13.3912599 -20.3457906   7.4799280  14.6352599
 -20.0767906   1.6779280  32.3182599 -19.9237906   2.0469280  31.4492599
 -20.2657906   2.4359280  32.8712599   2.4162094 -18.3170720  23.0242599
   2.0432094 -18.9240720  22.3852599   3.2722094 -18.0850720  22.6642599
 -19.7597906   5.2039280  26.1862599 -20.4007906   4.7299280  25.6572599
 -19.6967906   6.0649280  25.7732599 -21.6047906   2.8149280  39.5902599
 -22.0607906   2.0249280  39.8792599 -20.6937906   2.5409280  39.4822599
  -2.8717906   4.3989280  38.9942599  -3.7577906   4.7549280  38.9312599
  -2.4307906   4.7109280  38.2042599   2.7032094 -19.4230720  12.8882599
   1.8842094 -18.9300720  12.8432599   2.4662094 -20.2450720  13.3172599
  -4.6507906 -10.1160720  28.7452599  -4.6997906  -9.8750720  29.6702599
  -3.7847906  -9.8190720  28.4662599 -11.0177906 -17.3830720  26.0802599
 -11.7547906 -17.1770720  26.6562599 -10.3157906 -16.8020720  26.3722599
 -21.9297906  -5.6710720  31.6102599 -21.7927906  -5.9170720  32.5252599
 -22.7697906  -6.0680720  31.3782599 -15.6787906   2.0659280  28.1312599
 -15.8527906   2.8779280  27.6572599 -15.3297906   1.4699280  27.4682599
 -17.9997906  -0.9590720  30.9482599 -17.9137906  -0.0310720  31.1662599
 -17.9257906  -1.4110720  31.7882599  -5.7587906   5.2969280  38.8192599
  -6.4197906   5.5449280  39.4652599  -6.2607906   4.9299280  38.0912599
  -6.7657906 -17.0000720  26.3852599  -6.7317906 -17.0540720  27.3402599
  -7.3597906 -16.2700720  26.2082599 -19.9327906   5.8989280  22.8812599
 -20.7887906   5.4739280  22.8292599 -19.5447906   5.7659280  22.0172599
 -22.6417906   4.3079280  14.2562599 -22.2097906   3.7659280  13.5952599
 -21.9687906   4.9289280  14.5342599   4.5442094 -20.3840720  16.8812599
   4.8182094 -19.9010720  16.1012599   5.2012094 -21.0730720  16.9802599
 -12.9147906   6.7599280  28.1822599 -12.2647906   6.0589280  28.1352599
 -13.7517906   6.3229280  28.0242599 -22.1897906   3.5209280  30.4402599
 -21.2617906   3.3039280  30.5272599 -22.2217906   4.1519280  29.7222599
 -10.5427906  -5.1390720  39.3902599  -9.8617906  -4.4670720  39.4202599
 -10.3587906  -5.6320720  38.5902599 -21.8917906   8.3949280  20.5622599
 -21.3937906   7.8339280  19.9662599 -22.7347906   8.5189280  20.1262599
 -22.6837906 -21.2850720  16.7582599 -22.6787906 -21.3570720  15.8032599
 -22.1387906 -22.0130720  17.0562599   0.8252094   7.6199280  37.9882599
   1.0502094   7.0919280  38.7542599   0.9022094   8.5249280  38.2902599
  -5.0097906 -20.0660720  12.6292599  -4.9947906 -20.2560720  13.5672599
  -4.8167906 -20.9060720  12.2112599 -14.9667906 -16.9100720  39.4452599
 -14.5917906 -16.8250720  40.3212599 -15.4497906 -17.7360720  39.4692599
 -22.2617906   1.4689280  19.0002599 -22.6267906   1.8739280  18.2142599
 -22.9557906   1.5469280  19.6552599  -1.7207906 -18.7170720  38.3322599
  -1.1837906 -19.2980720  38.8712599  -1.1067906 -18.0610720  38.0012599
   6.1132094  -2.2090720  39.7272599   5.6812094  -2.5340720  38.9372599
   6.9322094  -2.7010720  39.7732599  -0.3597906   1.2679280  35.0012599
   0.4772094   1.7329280  35.0212599  -0.8917906   1.7579280  34.3742599
   6.9262094 -20.3140720  33.3412599   7.1592094 -20.9660720  32.6802599
   5.9842094 -20.4290720  33.4702599  -8.1987906   2.7459280  39.4822599
  -9.0567906   3.1689280  39.5032599  -7.7237906   3.1999280  38.7862599
 -21.3287906  -1.0510720  36.7352599 -20.8217906  -1.6800720  36.2212599
 -21.9347906  -0.6600720  36.1052599   3.5882094 -11.4350720  40.2842599
   3.5682094 -10.8840720  41.0662599   3.4402094 -10.8270720  39.5592599
   3.6392094  -3.3210720  34.5942599   3.7852094  -2.4900720  34.1432599
   2.7042094  -3.4950720  34.4832599   3.8152094 -16.3950720  40.7702599
   2.9912094 -16.7920720  40.4882599   3.8102094 -15.5250720  40.3712599
 -19.9697906   4.1479280  33.7632599 -19.0437906   3.9329280  33.6482599
 -19.9647906   5.0039280  34.1922599   1.0642094   0.2019280  37.7942599
   1.7502094   0.6829280  37.3322599   0.2802094   0.7409280  37.6862599
   3.2512094  -4.0260720  39.4852599   3.9412094  -4.6560720  39.2802599
   3.6122094  -3.1800720  39.2202599   4.9972094  -3.6460720  37.2522599
   4.5472094  -3.2600720  36.5012599   5.0582094  -4.5780720  37.0422599
  -1.9897906  -1.1250720  35.1602599  -1.3707906  -0.3980720  35.2252599
  -2.0027906  -1.3460720  34.2282599   3.3042094 -20.8870720  37.1532599
   3.0742094 -21.4760720  36.4352599   4.0972094 -21.2670720  37.5312599
   1.2852094  -9.3080720  39.9992599   0.8922094  -8.4350720  39.9912599
   0.5482094  -9.9010720  40.1492599 -19.0167906 -18.9240720  12.1502599
 -19.6537906 -18.4660720  11.6012599 -19.5437906 -19.5100720  12.6922599
   1.4572094   7.6509280  35.2772599   1.4742094   7.3849280  36.1962599
   1.6572094   6.8509280  34.7922599  -3.4157906   1.2639280  35.8522599
  -3.3047906   0.5419280  35.2332599  -2.7007906   1.1559280  36.4782599
  -2.0747906 -17.6620720  30.8612599  -1.9497906 -17.6120720  29.9142599
  -1.2037906 -17.5110720  31.2272599  -5.9767906 -20.3540720  37.7042599
  -5.3367906 -20.9690720  38.0642599  -5.6897906 -19.4970720  38.0192599
 -19.6397906   8.1339280  34.4792599 -19.9177906   7.9359280  33.5852599
 -19.2037906   8.9839280  34.4132599   1.6092094 -12.1480720  30.7302599
   2.4402094 -11.9330720  31.1542599   0.9412094 -11.8070720  31.3252599
 -20.1087906  -0.4030720  11.1492599 -20.9497906   0.0549280  11.1582599
 -19.9227906  -0.5430720  10.2202599   1.1452094 -19.8970720  33.9762599
   0.2712094 -19.6180720  34.2512599   1.1882094 -20.8230720  34.2152599
   5.9932094  -5.4380720  39.6532599   6.6022094  -4.7090720  39.5382599
   6.5542094  -6.2090720  39.7362599   6.5452094 -15.0980720  32.3562599
   6.1562094 -15.3930720  31.5332599   6.2132094 -15.7110720  33.0122599
 -17.7737906  -1.3040720  33.9322599 -17.3797906  -0.7580720  34.6122599
 -18.5797906  -1.6360720  34.3282599   1.7532094   6.3489280  40.2022599
   2.1152094   5.5039280  39.9362599   2.3692094   6.6789280  40.8562599
  -0.4967906 -20.9610720  10.6342599   0.0362094 -21.2380720  11.3792599
   0.1392094 -20.7470720   9.9512599 -20.7487906 -19.1220720  30.2542599
 -20.7767906 -18.4630720  29.5602599 -21.4207906 -19.7580720  30.0092599
 -21.9437906 -15.3470720  11.5192599 -21.6147906 -14.8930720  10.7432599
 -21.1997906 -15.3660720  12.1202599 -18.2497906   4.2979280  36.5882599
 -19.1847906   4.4639280  36.7052599 -18.1117906   3.4269280  36.9622599
 -12.8117906   4.6689280  32.5832599 -11.9847906   4.1979280  32.6882599
 -12.5517906   5.5809280  32.4472599  -9.6987906   7.6829280  28.7182599
  -9.3917906   7.0939280  28.0292599 -10.4677906   8.1109280  28.3422599
  -3.4107906  -4.5600720  44.0762599  -3.5057906  -5.4380720  44.4462599
  -4.1757906  -4.4550720  43.5112599 -15.8487906   5.7099280  44.7472599
 -16.5537906   5.1529280  45.0772599 -15.8237906   6.4489280  45.3552599
 -16.9337906 -14.5950720  49.3152599 -17.3987906 -15.3920720  49.0622599
 -16.9097906 -14.0680720  48.5162599 -22.1767906  -7.4910720  49.1502599
 -22.9997906  -7.1710720  48.7782599 -21.9037906  -8.1920720  48.5592599
 -11.5867906 -10.2160720  46.3182599 -12.1707906  -9.7660720  46.9282599
 -11.1337906 -10.8670720  46.8542599  -0.7327906 -12.0600720  46.9502599
  -0.8217906 -11.8260720  46.0262599  -0.0737906 -11.4530720  47.2882599
   5.2242094 -16.0010720  46.1632599   4.2842094 -15.8810720  46.0272599
   5.4032094 -16.8850720  45.8442599  -4.4497906  -0.2050720  41.2952599
  -5.1037906   0.4849280  41.1812599  -4.5337906  -0.7470720  40.5112599
 -12.1277906  -5.5800720  47.2792599 -11.6787906  -4.7390720  47.3632599
 -12.9357906  -5.4710720  47.7812599 -20.4237906  -0.7940720  44.4602599
 -19.6307906  -0.2580720  44.4612599 -20.1397906  -1.6440720  44.7962599
  -9.2827906  -6.8860720  41.1492599  -9.9117906  -7.5870720  41.3202599
  -9.7347906  -6.3010720  40.5412599 -11.0527906   1.5539280  49.1572599
 -11.1227906   2.3179280  48.5862599 -10.7367906   0.8539280  48.5852599
  -8.2817906   4.4849280  42.5052599  -7.6577906   4.4789280  41.7792599
  -7.8407906   3.9999280  43.2032599 -21.2237906 -13.6960720  45.7522599
 -20.8997906 -14.4840720  45.3172599 -20.4377906 -13.2700720  46.0952599
   5.7222094  -5.9930720  48.2572599   5.6362094  -5.4150720  47.4992599
   5.3752094  -5.4830720  48.9892599 -14.4587906 -15.1800720  44.1162599
 -13.7947906 -14.6580720  43.6662599 -14.8247906 -14.5870720  44.7732599
 -15.0187906  -7.7940720  47.7062599 -15.6537906  -8.0550720  48.3732599
 -14.4477906  -8.5560720  47.6072599  -0.3577906 -17.9590720  43.2782599
  -1.1307906 -17.9890720  42.7142599  -0.0147906 -17.0720720  43.1672599
 -11.6207906   4.7329280  42.1722599 -11.5617906   5.6829280  42.2742599
 -11.1737906   4.3809280  42.9412599  -8.2797906  -2.0380720  48.4212599
  -8.7917906  -2.6030720  48.9992599  -8.9057906  -1.3840720  48.1092599
 -17.8957906  -7.4840720  46.6682599 -17.5697906  -8.2830720  47.0832599
 -18.4167906  -7.0560720  47.3472599 -19.8127906   2.1569280  45.6072599
 -20.2527906   1.5669280  46.2192599 -19.0217906   1.6859280  45.3452599
 -15.4357906   7.2479280  42.2942599 -16.1317906   6.7229280  41.8992599
 -15.5257906   7.0959280  43.2352599  -7.1227906  -2.9570720  45.1632599
  -6.9457906  -2.9610720  44.2232599  -6.5647906  -3.6510720  45.5152599
 -16.8057906 -20.6840720  45.0772599 -15.9567906 -21.0930720  44.9082599
 -16.6517906 -19.7490720  44.9452599 -13.4007906 -12.8430720  47.1782599
 -12.9117906 -13.1090720  47.9572599 -12.7937906 -12.2820720  46.6952599
 -14.1497906   1.5209280  46.3412599 -13.6487906   1.1389280  47.0622599
 -13.5077906   1.6459280  45.6422599 -10.6217906 -18.5370720  47.2632599
 -10.2297906 -18.0570720  47.9932599  -9.9867906 -19.2240720  47.0582599
 -18.3227906 -17.2490720  49.2252599 -18.9937906 -17.8870720  49.4652599
 -18.0607906 -17.4970720  48.3392599 -10.1967906 -18.8220720  43.2602599
 -10.5647906 -18.4520720  42.4582599  -9.5377906 -18.1850720  43.5382599
  -9.2077906 -11.8710720  43.7822599  -8.7307906 -12.6180720  44.1422599
  -8.5917906 -11.1400720  43.8452599 -12.1317906 -10.2790720  41.0892599
 -11.8497906  -9.5990720  40.4772599 -12.2187906  -9.8250720  41.9282599
 -16.6147906   7.2219280  48.0062599 -17.1897906   7.7579280  48.5512599
 -15.8737906   7.7929280  47.8032599  -0.6537906  -9.5830720  49.3082599
  -0.6097906  -8.6320720  49.2162599   0.0052094  -9.9150720  48.6982599
 -12.6697906 -13.0200720  43.5602599 -12.0127906 -12.9590720  42.8672599
 -12.2187906 -12.7110720  44.3462599 -10.2967906 -12.1720720  47.6582599
  -9.8887906 -12.6080720  46.9092599 -10.1947906 -12.7910720  48.3812599
 -14.3107906 -17.4260720  49.2262599 -13.9497906 -17.1100720  48.3982599
 -13.8317906 -18.2360720  49.4032599 -18.6407906 -13.5240720  47.1722599
 -19.2127906 -13.2330720  47.8822599 -18.4897906 -12.7380720  46.6472599
 -15.1667906  -5.9750720  41.1752599 -14.6747906  -6.6580720  41.6302599
 -14.6627906  -5.1750720  41.3252599 -13.0407906 -18.6800720  46.2552599
 -12.1917906 -18.8290720  46.6732599 -13.0127906 -19.2090720  45.4582599
  -3.0367906  -4.5430720  47.4072599  -3.1867906  -3.7680720  46.8672599
  -3.6827906  -4.4750720  48.1102599 -13.3177906  -5.6330720  44.4882599
 -13.0467906  -5.7650720  45.3972599 -12.9067906  -4.8070720  44.2332599
 -10.4827906   1.8749280  44.6462599 -11.2417906   1.3589280  44.3752599
  -9.7377906   1.4419280  44.2302599 -18.9567906   6.7029280  46.7242599
 -19.2797906   7.5579280  46.4392599 -18.0727906   6.8749280  47.0462599
  -3.8217906 -13.2170720  46.5832599  -2.9037906 -13.1860720  46.8542599
  -3.9677906 -14.1290720  46.3342599 -17.0097906  -5.4860720  44.9262599
 -16.2177906  -5.9220720  44.6122599 -17.1947906  -5.9030720  45.7682599
  -7.1777906  -9.9130720  44.3372599  -6.3577906 -10.3900720  44.4602599
  -7.3487906  -9.5050720  45.1872599 -13.9247906  -1.1480720  42.2132599
 -14.5297906  -1.7860720  42.5912599 -14.0407906  -0.3620720  42.7472599
  -9.3687906 -21.0000720  45.7392599  -8.5517906 -21.0210720  46.2362599
  -9.0947906 -21.0540720  44.8232599 -10.9517906 -12.6930720  41.4322599
 -11.3397906 -11.8620720  41.1602599 -10.0077906 -12.5380720  41.4062599
  -8.0807906 -16.5340720  47.3502599  -7.5247906 -17.3100720  47.2812599
  -7.5447906 -15.8950720  47.8202599  -9.1367906  -9.5240720  48.9252599
  -9.8547906  -9.1170720  49.4112599  -9.4217906 -10.4270720  48.7882599
 -19.6147906  -6.2770720  48.6092599 -20.2127906  -6.1500720  47.8732599
 -20.0867906  -6.8570720  49.2052599  -9.8597906  -3.3730720  45.3252599
  -9.9867906  -3.0860720  46.2292599  -8.9267906  -3.2370720  45.1592599
 -17.5237906  -4.9670720  41.8582599 -16.6147906  -5.1630720  42.0872599
 -17.7177906  -5.5530720  41.1272599  -4.8487906 -16.7860720  40.9482599
  -5.7607906 -16.5180720  41.0642599  -4.6147906 -17.2050720  41.7772599
 -16.7307906  -9.8080720  43.7402599 -17.5507906  -9.3150720  43.7032599
 -16.0927906  -9.1860720  44.0892599 -10.9327906  -9.6230720  43.7542599
 -11.2167906  -9.6010720  44.6672599 -10.5287906 -10.4840720  43.6482599
 -16.4307906 -17.6860720  46.8922599 -15.9887906 -17.4030720  47.6922599
 -16.0357906 -17.1560720  46.1992599  -1.8197906  -4.7470720  42.1002599
  -1.4627906  -3.8730720  41.9412599  -2.4077906  -4.6340720  42.8462599
  -4.8387906 -11.3680720  44.9542599  -4.2487906 -10.6240720  45.0792599
  -4.5867906 -11.9910720  45.6352599 -14.8107906  -7.7630720  44.9012599
 -14.1287906  -7.1490720  44.6302599 -14.8867906  -7.6360720  45.8472599
 -14.3067906   7.9859280  45.3342599 -13.5527906   8.2519280  44.8072599
 -14.1507906   8.3819280  46.1912599  -4.9557906 -15.7670720  46.9342599
  -4.0387906 -15.9520720  46.7322599  -5.4447906 -16.1570720  46.2102599
 -14.9887906 -11.8590720  42.5162599 -14.1137906 -12.1690720  42.7482599
 -15.4427906 -11.7700720  43.3542599   4.3202094  -8.0740720  47.1902599
   3.4002094  -7.8400720  47.0682599   4.7182094  -7.2900720  47.5682599
 -17.4367906 -15.7130720  45.1542599 -16.8747906 -14.9710720  44.9312599
 -17.6857906 -15.5600720  46.0662599   0.7742094 -10.2880720  43.9552599
  -0.1177906  -9.9420720  43.9372599   1.2992094  -9.6200720  43.5142599
  -5.7537906 -17.2730720  44.3082599  -5.4897906 -18.1360720  44.6272599
  -6.4797906 -17.4510720  43.7092599   6.0182094 -14.2920720  42.9022599
   6.0572094 -14.5860720  43.8122599   6.7272094 -14.7670720  42.4672599
 -17.1387906   2.0559280  40.6962599 -16.7177906   2.3049280  41.5192599
 -16.4287906   1.7009280  40.1622599 -19.7847906  -3.2960720  42.0472599
 -19.6557906  -2.3480720  42.0762599 -18.9397906  -3.6450720  41.7662599
 -19.2577906  -8.7820720  43.8892599 -20.0907906  -9.1500720  44.1862599
 -19.3507906  -7.8390720  44.0252599 -12.6927906 -19.8010720  44.0262599
 -13.2427906 -19.7300720  43.2452599 -11.8387906 -19.4700720  43.7482599
 -15.0107906  -5.0200720  47.6782599 -15.1977906  -5.9500720  47.8032599
 -14.9797906  -4.6590720  48.5642599  -9.7787906  -7.1620720  43.8552599
  -9.3827906  -6.8870720  43.0292599 -10.2107906  -7.9910720  43.6502599
 -15.6017906 -13.5580720  46.0002599 -16.1707906 -12.8060720  46.1652599
 -14.8437906 -13.4150720  46.5662599 -17.9177906  -2.7110720  47.1052599
 -17.5207906  -1.8660720  47.3182599 -17.4037906  -3.0380720  46.3672599
 -21.9347906   7.5689280  41.8312599 -21.6347906   8.0809280  41.0802599
 -21.7747906   6.6589280  41.5812599  -6.6607906  -4.7290720  47.5272599
  -7.3657906  -5.0230720  46.9492599  -7.1027906  -4.4870720  48.3412599
 -13.0967906  -4.3000720  41.2582599 -12.3317906  -4.6750720  40.8222599
 -12.7347906  -3.8030720  41.9922599  -8.4257906  -0.6290720  41.6652599
  -9.2957906  -0.3440720  41.3862599  -7.9637906  -0.8230720  40.8502599
   4.1172094  -9.6560720  42.4752599   4.1082094  -9.0810720  43.2412599
   4.8212094 -10.2800720  42.6502599  -6.9787906 -18.2530720  42.1072599
  -6.4197906 -19.0290720  42.0692599  -7.3237906 -18.1620720  41.2192599
  -5.9137906   8.3799280  46.2922599  -6.0627906   7.6449280  46.8882599
  -6.1967906   8.0559280  45.4372599 -12.9827906   5.6649280  46.0152599
 -13.8797906   5.8829280  45.7612599 -12.4447906   5.9789280  45.2882599
 -11.7257906   4.1429280  47.9392599 -11.9187906   4.6249280  48.7422599
 -12.0527906   4.7059280  47.2372599  -8.8457906  -6.0320720  46.4052599
  -8.6947906  -6.9700720  46.2912599  -9.4297906  -5.7940720  45.6852599
 -13.0907906   6.5059280  49.2302599 -13.3907906   6.4979280  48.3222599
 -13.6657906   7.1339280  49.6672599  -8.9527906 -14.8250720  43.0842599
  -9.7447906 -14.3620720  42.8082599  -9.2617906 -15.4700720  43.7202599
 -12.3067906  -1.6970720  46.7242599 -12.9567906  -2.0500720  46.1172599
 -12.8177906  -1.1860720  47.3522599  -9.7217906 -16.4380720  45.2782599
  -9.1297906 -16.4470720  46.0302599 -10.4147906 -17.0560720  45.5112599
 -22.7747906  -0.0860720  45.3132599 -21.8817906  -0.4090720  45.1972599
 -23.3227906  -0.7270720  44.8592599  -7.0517906   4.3179280  45.3602599
  -7.1717906   3.5359280  44.8202599  -7.8927906   4.4349280  45.8032599
 -17.0147906  -0.1670720  47.3792599 -16.3587906   0.2159280  47.9612599
 -17.8307906  -0.1290720  47.8782599  -5.3277906   6.1079280  48.3542599
  -6.1737906   5.7249280  48.5842599  -4.9407906   5.4849280  47.7392599
 -20.5027906  -2.7770720  46.1382599 -21.1497906  -2.9380720  46.8262599
 -19.6577906  -2.9120720  46.5672599  -8.5067906   7.2179280  47.9862599
  -8.0567906   6.5829280  48.5422599  -8.8457906   6.6999280  47.2562599
 -16.3167906  -2.6600720  42.9942599 -16.9087906  -2.0450720  42.5612599
 -16.8157906  -3.4750720  43.0492599 -15.5477906   1.5249280  44.0062599
 -15.2397906   2.2879280  43.5182599 -15.1667906   1.6279280  44.8782599
 -13.6457906 -16.1260720  46.3622599 -13.9617906 -15.8930720  45.4892599
 -13.3937906 -17.0460720  46.2892599 -19.5657906  -6.0800720  43.8242599
 -19.1767906  -5.4220720  43.2482599 -19.0127906  -6.0720720  44.6052599
 -11.5417906   7.8599280  41.3682599 -11.6687906   7.5369280  40.4762599
 -12.0867906   8.6459280  41.4182599 -16.1077906   3.3029280  47.6382599
 -15.4987906   2.8199280  47.0802599 -16.7607906   3.6549280  47.0332599
 -22.0317906  -3.7860720  43.6842599 -21.4377906  -3.7310720  44.4332599
 -21.5067906  -3.4950720  42.9392599 -11.9067906   0.7079280  42.5592599
 -11.9417906  -0.1760720  42.1932599 -12.3787906   1.2489280  41.9262599
 -22.1977906  -6.8210720  43.0472599 -22.8267906  -6.1100720  43.1662599
 -21.3467906  -6.4210720  43.2242599  -2.7267906 -18.5320720  42.0322599
  -2.3797906 -19.2160720  41.4592599  -3.5877906 -18.8560720  42.2972599
 -11.9467906  -3.0920720  43.3782599 -12.1407906  -2.1600720  43.4832599
 -11.2507906  -3.2650720  44.0132599  -9.1687906 -21.1210720  42.4612599
  -9.9497906 -21.3440720  41.9552599  -9.1637906 -20.1640720  42.4872599
 -19.6387906 -20.9810720  45.1882599 -18.6837906 -20.9140720  45.1822599
 -19.9347906 -20.1560720  45.5722599 -13.3917906  -0.1090720  48.5882599
 -13.9957906  -0.0820720  49.3302599 -12.6017906   0.3289280  48.9062599
   2.6512094   3.6069280  49.1972599   1.7642094   3.8549280  48.9382599
   3.0882094   3.3859280  48.3742599  -9.5387906   4.4569280  46.1782599
  -9.7347906   4.2909280  47.1002599 -10.2997906   4.1199280  45.7062599
  -6.1467906  -9.2810720  41.8112599  -6.6687906  -8.5260720  41.5382599
  -6.5807906  -9.5990720  42.6032599  -8.3117906  -8.7120720  46.4862599
  -8.4397906  -8.8900720  47.4182599  -9.1947906  -8.7230720  46.1162599
  -3.7867906  -6.8660720  46.2202599  -3.6337906  -6.0230720  46.6462599
  -3.9907906  -7.4640720  46.9392599 -10.6997906  -3.2150720  48.3512599
 -11.0677906  -2.9870720  49.2052599 -11.2477906  -2.7460720  47.7212599
   2.4072094  -6.6980720  41.9672599   2.5052094  -7.4780720  41.4202599
   1.6242094  -6.2630720  41.6262599  -3.9447906   6.0459280  43.9632599
  -3.0857906   5.7639280  44.2762599  -4.5597906   5.7129280  44.6162599
 -14.4547906 -17.3860720  42.4742599 -14.3637906 -16.7430720  43.1772599
 -15.2757906 -17.8400720  42.6682599 -11.6107906   7.1989280  44.0832599
 -11.6007906   8.0299280  44.5592599 -11.2077906   7.4019280  43.2382599
 -21.1317906   6.8859280  48.1962599 -20.4627906   6.3769280  47.7402599
 -21.9167906   6.3399280  48.1582599 -21.3997906   5.1909280  41.0102599
 -20.6237906   5.5039280  40.5452599 -21.5777906   4.3319280  40.6282599
  -0.4467906  -6.9340720  49.3022599  -1.0727906  -6.8980720  50.0252599
   0.3252094  -6.4720720  49.6302599  -9.8567906  -0.1980720  46.9782599
  -9.3267906   0.2419280  46.3132599 -10.4097906  -0.8030720  46.4832599
 -19.3717906 -15.3830720  42.5192599 -18.8097906 -14.7160720  42.1242599
 -18.8367906 -15.7650720  43.2152599  -5.8007906   2.0339280  40.7132599
  -5.3457906   2.8039280  41.0542599  -6.6717906   2.3539280  40.4772599
  -4.5537906  -8.9660720  48.0502599  -5.1057906  -9.5940720  47.5842599
  -5.1537906  -8.5140720  48.6432599 -22.6757906 -18.0050720  46.4512599
 -22.8207906 -18.9190720  46.2092599 -22.7397906 -17.9970720  47.4062599
 -18.0647906   4.8659280  42.6952599 -17.9817906   4.1449280  43.3192599
 -18.8847906   5.2969280  42.9332599 -17.2947906  -0.7000720  41.2482599
 -18.1997906  -0.6610720  40.9382599 -16.9437906   0.1729280  41.0742599
 -14.0797906   3.7219280  43.3982599 -13.3597906   3.7919280  42.7722599
 -14.5197906   4.5709280  43.3532599 -17.9437906   0.4419280  45.1072599
 -17.3287906   0.7729280  44.4522599 -17.4247906   0.3709280  45.9092599
 -21.6287906   2.3039280  42.8962599 -21.1087906   1.8079280  42.2642599
 -21.1907906   2.1579280  43.7342599   3.6882094   1.8459280  44.5042599
   4.4552094   1.7319280  43.9432599   3.3402094   2.7039280  44.2632599
  -4.3257906 -13.5360720  42.2212599  -3.6127906 -13.1820720  42.7522599
  -4.7617906 -12.7640720  41.8592599  -8.3597906  -0.6540720  44.3922599
  -8.4447906  -0.7970720  43.4492599  -7.7897906  -1.3620720  44.6912599
  -7.0147906   7.1589280  43.8672599  -7.1507906   6.2329280  43.6672599
  -7.6827906   7.6159280  43.3562599 -13.7267906 -20.3880720  41.7892599
 -14.4107906 -21.0580720  41.7652599 -14.1397906 -19.6100720  41.4162599
  -8.1417906 -13.7680720  45.9692599  -7.4497906 -13.8890720  45.3192599
  -8.4127906 -14.6570720  46.1982599 -10.5697906 -15.2180720  48.4912599
  -9.7487906 -15.6450720  48.2482599 -11.2357906 -15.6620720  47.9662599
   2.1482094  -6.4470720  47.0292599   1.2592094  -6.2200720  46.7552599
   2.6792094  -5.6940720  46.7712599  -3.4247906  -9.5400720  42.3222599
  -4.3677906  -9.4450720  42.1872599  -3.2517906 -10.4670720  42.1552599
   4.9482094 -18.7790720  44.5632599   5.4032094 -19.5460720  44.2152599
   4.2282094 -18.6290720  43.9512599  -6.9427906 -14.5470720  41.2742599
  -7.6097906 -14.7120720  41.9412599  -6.3557906 -13.9070720  41.6752599
   2.6382094 -14.5940720  46.1132599   2.0732094 -15.3570720  45.9922599
   2.9512094 -14.3850720  45.2322599  -6.1047906 -14.5580720  44.5002599
  -5.6157906 -14.0490720  43.8532599  -6.0277906 -15.4640720  44.2002599
   6.7202094 -20.8640720  43.9902599   7.3832094 -20.8010720  43.3032599
   6.3302094 -21.7300720  43.8682599 -22.2537906 -18.1270720  42.7202599
 -21.9087906 -17.6220720  41.9842599 -23.1927906 -18.1940720  42.5462599
   2.6402094   1.4369280  46.9612599   3.3512094   1.0279280  47.4552599
   3.0132094   1.6009280  46.0952599  -2.9837906  -9.4020720  45.4542599
  -2.5247906  -9.2420720  46.2782599  -3.2577906  -8.5340720  45.1592599
 -21.1167906  -7.0010720  46.2682599 -21.7387906  -7.0510720  45.5412599
 -21.0507906  -7.9000720  46.5892599  -1.1867906  -2.0770720  41.8172599
  -0.4087906  -2.4810720  42.2002599  -1.4267906  -1.3850720  42.4332599
   6.4052094   2.2019280  46.4522599   6.5532094   2.7549280  45.6852599
   6.6182094   1.3169280  46.1552599   2.9242094  -2.4180720  48.7942599
   2.0372094  -2.4360720  49.1532599   3.3742094  -3.1400720  49.2312599
  -6.1587906 -11.9950720  47.7142599  -6.5267906 -12.4620720  46.9632599
  -5.2547906 -12.3030720  47.7692599  -4.4697906   4.1829280  46.6572599
  -3.9467906   3.4359280  46.3652599  -5.2157906   4.2019280  46.0582599
 -18.0197906   4.2489280  45.8622599 -18.4597906   5.0729280  46.0742599
 -18.7327906   3.6309280  45.7022599 -22.7817906 -15.2290720  47.9032599
 -23.3597906 -15.6700720  47.2792599 -22.1037906 -14.8270720  47.3592599
 -10.7717906 -17.7750720  40.9232599 -11.3637906 -17.0520720  40.7162599
 -10.0967906 -17.7340720  40.2452599   0.1592094   8.2069280  47.2942599
  -0.4947906   8.5439280  47.9062599   0.8312094   7.8149280  47.8532599
   7.2192094 -12.2080720  47.9612599   6.2832094 -12.3100720  48.1332599
   7.3592094 -12.6530720  47.1262599 -20.1757906 -12.6370720  49.2482599
 -19.7527906 -12.4350720  50.0832599 -21.0417906 -12.2360720  49.3152599
 -16.7467906 -18.0590720  43.9492599 -17.0997906 -17.1950720  44.1632599
 -17.4367906 -18.4780720  43.4342599  -2.6497906 -18.3150720  47.7882599
  -2.0237906 -18.8810720  48.2412599  -3.3837906 -18.2340720  48.3962599
 -16.9257906 -11.2830720  45.9782599 -17.1767906 -10.7270720  46.7162599
 -16.9397906 -10.6980720  45.2212599  -6.8607906  -5.6190720  41.2892599
  -7.7427906  -5.9570720  41.4422599  -6.4217906  -6.3110720  40.7942599
  -0.6477906 -13.7960720  49.2492599   0.2662094 -14.0800720  49.2172599
  -0.6847906 -13.0400720  48.6632599   1.5742094 -10.6660720  47.8522599
   1.8822094 -10.2190720  48.6402599   2.2862094 -10.5580720  47.2212599
   1.6182094 -13.3310720  40.7802599   2.1872094 -12.7310720  40.2982599
   2.1372094 -13.5950720  41.5402599  -2.3667906 -15.8390720  46.5652599
  -2.1227906 -16.6250720  47.0532599  -1.5317906 -15.4640720  46.2822599
   0.2282094   4.1349280  48.3622599  -0.5957906   4.5509280  48.1092599
   0.2462094   3.3159280  47.8672599 -21.6087906  -3.2320720  48.7732599
 -21.0257906  -3.1040720  49.5222599 -22.3987906  -3.6220720  49.1472599
   1.9752094 -19.4490720  46.5132599   1.3712094 -20.1920720  46.5262599
   2.8452094 -19.8480720  46.5182599   4.9532094  -7.9650720  44.4612599
   4.9262094  -7.7220720  45.3862599   5.0882094  -7.1370720  43.9992599
   1.6922094 -17.7780720  48.9512599   1.8532094 -18.4380720  48.2772599
   2.5562094 -17.6010720  49.3252599   5.0792094  -5.6040720  42.4282599
   4.2502094  -6.0690720  42.3092599   5.4572094  -5.5600720  41.5502599
 -18.4067906 -10.6940720  41.6622599 -19.1127906 -10.1210720  41.9612599
 -17.6887906 -10.5300720  42.2742599   4.4252094 -16.5940720  48.6752599
   4.5782094 -15.6730720  48.8882599   4.7482094 -16.6890720  47.7792599
  -6.0267906  -3.1430720  42.2952599  -6.0907906  -4.0340720  41.9512599
  -5.3997906  -2.7080720  41.7182599 -14.2987906  -2.6390720  45.3082599
 -14.3677906  -3.5690720  45.5242599 -14.9387906  -2.5070720  44.6092599
 -21.8977906  -9.3660720  44.1272599 -22.0457906  -8.7040720  43.4522599
 -22.5677906 -10.0300720  43.9632599   0.2082094 -13.1300720  44.1192599
   0.4022094 -12.1940720  44.0642599   0.6252094 -13.4140720  44.9332599
  -4.4157906 -19.7970720  45.1212599  -4.6407906 -20.5320720  45.6912599
  -3.4597906 -19.7570720  45.1482599 -21.8337906  -9.7800720  47.0802599
 -22.0067906  -9.9950720  46.1632599 -21.9747906 -10.6020720  47.5502599
   0.2752094 -15.5190720  42.9002599   0.3052094 -14.6010720  43.1692599
  -0.2357906 -15.5160720  42.0912599  -3.3827906   7.4539280  41.4832599
  -2.4257906   7.4459280  41.4772599  -3.6227906   6.9339280  42.2502599
 -14.8897906 -20.6350720  47.6752599 -14.4267906 -20.1600720  48.3652599
 -15.2007906 -19.9520720  47.0812599   3.2502094 -15.3620720  43.4872599
   3.9632094 -15.0880720  42.9102599   2.6632094 -15.8630720  42.9212599
   2.5992094  -0.7490720  42.1462599   2.6872094  -0.5640720  41.2112599
   3.4112094  -1.1990720  42.3792599   6.5922094 -11.7870720  41.8302599
   6.9702094 -11.9470720  40.9662599   6.0752094 -12.5720720  42.0152599
  -1.0487906  -8.2030720  42.9982599  -1.0387906  -7.8570720  42.1062599
  -1.8567906  -8.7140720  43.0482599   5.2182094   4.2059280  40.8152599
   4.8392094   4.8199280  40.1852599   5.9782094   4.6669280  41.1702599
   5.9472094   6.6199280  43.6622599   6.0632094   5.7209280  43.9702599
   6.6652094   6.7579280  43.0452599  -0.3797906   2.9069280  41.4332599
  -1.1557906   2.8349280  41.9892599  -0.3067906   2.0509280  41.0112599
  -3.2557906  -2.3050720  45.4062599  -2.9847906  -3.0630720  44.8892599
  -3.2407906  -1.5750720  44.7872599   4.1272094 -10.9930720  46.1622599
   4.4842094 -10.1280720  46.3602599   4.7302094 -11.3590720  45.5142599
 -21.0987906 -16.8160720  44.8412599 -21.4197906 -17.2330720  44.0412599
 -21.7267906 -17.0750720  45.5152599   3.8992094   7.3299280  41.8382599
   4.7192094   6.9789280  42.1852599   3.5192094   7.8189280  42.5682599
   1.3632094  -3.0550720  42.3802599   1.7212094  -2.1900720  42.1792599
   2.0152094  -3.4570720  42.9552599   5.0762094 -18.6250720  41.4032599
   4.3262094 -19.1980720  41.5642599   4.7582094 -17.7480720  41.6142599
   1.1882094 -16.8570720  45.6852599   1.0722094 -17.0410720  44.7532599
   1.4352094 -17.6990720  46.0672599 -17.5347906 -10.0080720  48.1622599
 -17.9677906 -10.6410720  48.7362599 -17.2377906  -9.3150720  48.7512599
   4.6612094 -13.2680720  47.9912599   4.2662094 -12.5080720  47.5632599
   4.6402094 -13.9550720  47.3252599 -18.1737906 -13.3580720  40.9752599
 -18.2627906 -12.4220720  41.1542599 -17.2327906 -13.5240720  41.0302599
 -19.0267906 -18.4250720  46.1552599 -18.0727906 -18.3480720  46.1882599
 -19.3097906 -17.6800720  45.6252599  -4.2967906   4.1369280  41.3312599
  -4.1997906   5.0389280  41.6372599  -3.6157906   4.0359280  40.6652599
  -0.2657906  -5.9870720  44.9022599  -0.9237906  -5.4760720  44.4302599
  -0.3227906  -6.8630720  44.5212599  -0.8417906   8.1669280  44.9042599
  -1.3207906   8.9889280  45.0002599  -0.5197906   7.9719280  45.7842599
  -6.5757906 -18.9710720  47.6502599  -6.3147906 -19.8470720  47.3672599
  -5.7557906 -18.5440720  47.8962599  -2.4837906   2.5439280  43.4382599
  -3.2077906   3.0329280  43.0492599  -2.5627906   2.7059280  44.3782599
   4.3362094  -0.1490720  48.7402599   4.2042094   0.4349280  49.4872599
   3.5532094  -0.6990720  48.7232599  -1.6987906 -19.4530720  45.3532599
  -1.7017906 -18.9040720  46.1382599  -1.2517906 -18.9240720  44.6922599
 -20.7327906   6.7699280  44.1222599 -21.1647906   7.2109280  43.3912599
 -20.3457906   7.4799280  44.6352599  -5.3537906  -1.9490720  47.5472599
  -6.2417906  -2.2940720  47.6412599  -5.0917906  -2.2000720  46.6612599
  -2.8807906   1.9829280  46.0662599  -3.3537906   1.1509280  46.0832599
  -1.9667906   1.7419280  46.2172599  -1.2867906   5.4599280  44.5482599
  -0.9797906   5.1389280  43.7002599  -1.0117906   6.3769280  44.5712599
  -0.2467906   1.6189280  46.8632599  -0.2987906   0.8349280  47.4102599
   0.6712094   1.6659280  46.5962599   1.2992094   0.2619280  44.3492599
   1.9442094   0.8849280  44.6832599   1.6242094   0.0209280  43.4822599
   2.5102094  -5.0440720  44.3442599   2.6172094  -5.7000720  43.6552599
   1.6762094  -5.2660720  44.7592599  -3.0997906  -0.0240720  48.2052599
  -3.6947906  -0.6920720  47.8642599  -2.3017906  -0.5040720  48.4242599
   4.6582094   4.2719280  47.1212599   4.9452094   3.3689280  47.2512599
   4.5832094   4.3659280  46.1712599   2.7032094 -19.4230720  42.8882599
   1.8842094 -18.9300720  42.8432599   2.4662094 -20.2450720  43.3172599
   5.0252094  -5.0860720  45.5752599   4.3522094  -5.1190720  44.8952599
   5.4142094  -4.2150720  45.4862599   1.8152094   8.1489280  43.8792599
   0.8682094   8.0359280  43.9552599   2.1692094   7.7399280  44.6692599
   1.3422094   6.9049280  49.2852599   2.1742094   6.4319280  49.3002599
   0.7112094   6.2919280  49.6622599   4.8172094   6.7789280  48.2002599
   4.7542094   5.8269280  48.1192599   4.7422094   6.9439280  49.1402599
   5.8302094   1.8529280  42.7462599   6.7342094   2.1579280  42.8142599
   5.4172094   2.4599280  42.1322599  -7.3517906   1.8979280  43.6502599
  -6.8687906   1.7159280  42.8442599  -7.4467906   1.0429280  44.0702599
   2.3542094   3.5949280  42.4252599   1.4432094   3.3039280  42.4412599
   2.5752094   3.6409280  41.4952599  -1.6587906   5.6019280  47.1622599
  -1.3937906   5.3749280  46.2712599  -1.2767906   6.4659280  47.3142599
   5.8792094  -2.3630720  44.4762599   6.7472094  -2.7410720  44.3312599
   5.3492094  -2.6960720  43.7522599   4.5072094  -2.6740720  42.1562599
   5.0002094  -2.3890720  41.3862599   4.5342094  -3.6300720  42.1182599
 -22.6417906   4.3079280  44.2562599 -22.2097906   3.7659280  43.5952599
 -21.9687906   4.9289280  44.5342599  -0.9057906  -1.2990720  48.9002599
  -1.0207906  -2.2430720  49.0032599  -0.4007906  -1.2050720  48.0932599
   4.5442094 -20.3840720  46.8812599   4.8182094 -19.9010720  46.1012599
   5.2012094 -21.0730720  46.9802599   6.6922094 -11.9550720  44.5532599
   6.4242094 -12.1230720  43.6502599   7.5262094 -12.4150720  44.6462599
 -22.6837906 -21.2850720  46.7582599 -22.6787906 -21.3570720  45.8032599
 -22.1387906 -22.0130720  47.0562599  -5.0097906 -20.0660720  42.6292599
  -4.9947906 -20.2560720  43.5672599  -4.8167906 -20.9060720  42.2112599
  -1.5277906  -0.1230720  43.8172599  -0.6217906   0.0379280  44.0802599
  -1.8837906   0.7469280  43.6402599 -22.2617906   1.4689280  49.0002599
 -22.6267906   1.8739280  48.2142599 -22.9557906   1.5469280  49.6552599
   3.2662094   7.0919280  45.9412599   3.7052094   7.3819280  46.7412599
   3.7182094   6.2829280  45.7002599  -0.8137906   5.9829280  41.6322599
   0.1112094   6.0479280  41.3952599  -1.0847906   5.1249280  41.3052599
  -5.1997906  -0.8190720  43.8382599  -5.3977906  -1.6700720  43.4462599
  -5.0397906  -0.2430720  43.0912599 -19.0167906 -18.9240720  42.1502599
 -19.6537906 -18.4660720  41.6012599 -19.5437906 -19.5100720  42.6922599
   3.3452094   4.8399280  44.5232599   2.8542094   5.6489280  44.6662599
   2.9972094   4.4909280  43.7032599 -20.1087906  -0.4030720  41.1492599
 -20.9497906   0.0549280  41.1582599 -19.9227906  -0.5430720  40.2202599
   0.7802094  -1.1180720  46.7172599   1.6422094  -1.5170720  46.8362599
   0.8112094  -0.7340720  45.8412599  -0.4967906 -20.9610720  40.6342599
   0.0362094 -21.2380720  41.3792599   0.1392094 -20.7470720  39.9512599
 -21.9437906 -15.3470720  41.5192599 -21.6147906 -14.8930720  40.7432599
 -21.1997906 -15.3660720  42.1202599 -18.6917906  22.1109280  -5.6247401
 -18.7917906  22.8599280  -5.0377401 -18.1467906  21.4939280  -5.1367401
  -3.4107906  25.4399280 -15.9237401  -3.5057906  24.5619280 -15.5537401
  -4.1757906  25.5449280 -16.4887401 -15.8487906  35.7099280 -15.2527401
 -16.5537906  35.1529280 -14.9227401 -15.8237906  36.4489280 -14.6447401
 -16.1017906  27.1459280   2.0842599 -16.4287906  27.8009280   2.7022599
 -15.1597906  27.3089280   2.0392599 -10.9277906  20.4039280  -7.3047401
 -11.5227906  19.6809280  -7.1057401 -10.0557906  20.0119280  -7.2767401
 -16.9337906  15.4049280 -10.6847401 -17.3987906  14.6079280 -10.9377401
 -16.9097906  15.9319280 -11.4837401  -7.7077906  26.2639280  -3.7807401
  -8.5187906  26.0819280  -4.2557401  -7.0227906  26.2079280  -4.4477401
 -22.1767906  22.5089280 -10.8497401 -22.9997906  22.8289280 -11.2217401
 -21.9037906  21.8079280 -11.4407401  -3.9567906  27.0489280 -10.1017401
  -4.3437906  26.6079280  -9.3447401  -4.6637906  27.5919280 -10.4497401
 -13.7487906  17.1179280  -1.5597401 -14.3547906  16.6849280  -0.9577401
 -13.4187906  16.4119280  -2.1157401 -11.5867906  19.7839280 -13.6817401
 -12.1707906  20.2339280 -13.0717401 -11.1337906  19.1329280 -13.1457401
  -5.3457906  23.6629280  -1.4777401  -4.8647906  23.5799280  -0.6537401
  -4.6807906  23.5439280  -2.1557401  -0.7327906  17.9399280 -13.0497401
  -0.8217906  18.1739280 -13.9737401  -0.0737906  18.5469280 -12.7117401
 -17.1977906  22.1219280 -10.4357401 -17.0477906  22.1529280  -9.4907401
 -18.0587906  22.5219280 -10.5557401 -20.2797906  15.5989280   9.4612599
 -19.5387906  16.0109280   9.9072599 -19.9497906  15.3959280   8.5862599
  -9.8817906  33.9879280  -5.1877401  -8.9487906  33.7959280  -5.2767401
 -10.2887906  33.5569280  -5.9387401   5.2242094  13.9989280 -13.8367401
   4.2842094  14.1189280 -13.9727401   5.4032094  13.1149280 -14.1557401
 -12.1277906  24.4199280 -12.7207401 -11.6787906  25.2609280 -12.6367401
 -12.9357906  24.5289280 -12.2187401 -20.4237906  29.2059280 -15.5397401
 -19.6307906  29.7419280 -15.5387401 -20.1397906  28.3559280 -15.2037401
  -4.8347906  22.8919280  -8.7207401  -5.5607906  22.7999280  -9.3377401
  -5.1087906  22.3919280  -7.9517401 -13.1577906  32.4389280  10.8002599
 -13.7647906  33.0299280  10.3552599 -12.2897906  32.7829280  10.5892599
  -9.2827906  23.1139280 -18.8507401  -9.9117906  22.4129280 -18.6797401
  -9.7347906  23.6989280 -19.4587401  -5.8797906  30.4639280  -6.0187401
  -5.5347906  31.3399280  -6.1877401  -5.1497906  29.8759280  -6.2127401
 -18.3807906  37.2219280   6.8482599 -17.9147906  36.5449280   6.3572599
 -19.0287906  37.5629280   6.2312599 -11.0527906  31.5539280 -10.8427401
 -11.1227906  32.3179280 -11.4137401 -10.7367906  30.8539280 -11.4147401
  -8.2817906  34.4849280 -17.4947401  -7.6577906  34.4789280 -18.2207401
  -7.8407906  33.9999280 -16.7967401 -21.2237906  16.3039280 -14.2477401
 -20.8997906  15.5159280 -14.6827401 -20.4377906  16.7299280 -13.9047401
 -18.4347906  10.1309280  -2.7477401 -19.3657906  10.2679280  -2.9217401
 -18.0447906  10.0069280  -3.6127401  -5.8347906  22.8169280   8.9992599
  -4.9927906  22.4189280   9.2202599  -5.6717906  23.2819280   8.1782599
 -11.7937906  10.6169280  -1.2397401 -12.0557906  11.5379280  -1.2467401
 -11.1207906  10.5639280  -0.5617401  -7.6577906   9.1159280 -10.5137401
  -8.0477906   9.8639280 -10.9657401  -7.7227906   8.3959280 -11.1407401
  -7.3937906  22.4709280  -6.2907401  -8.0027906  22.4169280  -5.5537401
  -7.9447906  22.6919280  -7.0417401 -15.9377906  35.3619280  -9.6277401
 -15.7207906  36.2449280  -9.3297401 -15.7957906  35.3859280 -10.5737401
 -10.5357906  17.5119280   7.5742599 -10.9367906  18.2629280   7.1382599
  -9.8267906  17.8879280   8.0962599   5.7222094  24.0069280 -11.7427401
   5.6362094  24.5849280 -12.5007401   5.3752094  24.5169280 -11.0107401
 -14.4587906  14.8199280 -15.8837401 -13.7947906  15.3419280 -16.3337401
 -14.8247906  15.4129280 -15.2267401   1.5722094  17.8469280  -2.0207401
   1.9082094  16.9539280  -2.0907401   1.4782094  17.9949280  -1.0797401
 -15.0187906  22.2059280 -12.2937401 -15.6537906  21.9449280 -11.6267401
 -14.4477906  21.4439280 -12.3927401 -13.7267906  11.2429280  -7.0847401
 -13.5467906  11.6989280  -7.9067401 -13.0397906  11.5419280  -6.4877401
  -6.9617906  22.4289280 -10.3747401  -7.6477906  23.0019280 -10.7167401
  -7.4107906  21.6069280 -10.1777401 -15.1637906  25.7369280  -6.8837401
 -15.6797906  26.3299280  -6.3367401 -15.1987906  24.8969280  -6.4257401
  -0.3577906  12.0409280 -16.7217401  -1.1307906  12.0109280 -17.2857401
  -0.0147906  12.9279280 -16.8327401  -1.5837906  28.9369280  -4.4387401
  -1.9367906  29.4739280  -3.7287401  -0.8647906  29.4569280  -4.7987401
 -15.6047906  16.6389280  10.4662599 -15.4527906  17.1779280  11.2422599
 -14.7477906  16.5769280  10.0452599 -12.4027906  34.3199280   7.4092599
 -12.4107906  34.7189280   6.5392599 -13.1967906  34.6489280   7.8312599
 -11.6207906  34.7329280 -17.8277401 -11.5617906  35.6829280 -17.7257401
 -11.1737906  34.3809280 -17.0587401 -18.1257906  12.0469280  -7.0387401
 -18.9787906  12.3859280  -7.3127401 -17.5817906  12.8269280  -6.9317401
  -9.6657906  20.7549280   7.6722599  -9.2387906  20.4829280   6.8592599
  -8.9507906  20.8399280   8.3022599 -11.4467906  29.2529280  -6.4057401
 -11.4677906  30.0219280  -6.9767401 -10.5257906  28.9939280  -6.3867401
  -7.2417906  12.9379280   3.8222599  -6.6897906  13.5789280   3.3742599
  -7.5457906  12.3549280   3.1272599  -8.2797906  27.9619280 -11.5787401
  -8.7917906  27.3969280 -11.0007401  -8.9057906  28.6159280 -11.8907401
 -17.8957906  22.5159280 -13.3317401 -17.5697906  21.7169280 -12.9167401
 -18.4167906  22.9439280 -12.6527401 -10.8707906  13.3669280  -0.9547401
 -10.0017906  13.7529280  -1.0617401 -11.0467906  13.4279280  -0.0157401
 -19.8127906  32.1569280 -14.3927401 -20.2527906  31.5669280 -13.7807401
 -19.0217906  31.6859280 -14.6547401 -13.4217906  14.4339280  -5.8257401
 -14.3447906  14.2569280  -5.6447401 -13.2677906  14.0459280  -6.6867401
 -16.3537906  27.4829280  -5.1747401 -17.0157906  27.3919280  -4.4897401
 -15.7227906  28.1069280  -4.8167401 -10.0857906  13.1779280  -6.3507401
  -9.2567906  12.7119280  -6.4627401 -10.4427906  12.8369280  -5.5297401
 -11.8937906  23.9509280  -7.4847401 -12.7417906  23.5439280  -7.6607401
 -12.0837906  24.8879280  -7.4297401 -11.5347906  17.0879280 -10.0357401
 -11.4717906  16.3789280  -9.3947401 -12.1397906  17.7149280  -9.6417401
 -15.4357906  37.2479280 -17.7057401 -16.1317906  36.7229280 -18.1007401
 -15.5257906  37.0959280 -16.7647401  -7.1227906  27.0429280 -14.8367401
  -6.9457906  27.0389280 -15.7767401  -6.5647906  26.3489280 -14.4847401
 -16.8057906   9.3159280 -14.9227401 -15.9567906   8.9069280 -15.0917401
 -16.6517906  10.2509280 -15.0547401 -13.4007906  17.1569280 -12.8217401
 -12.9117906  16.8909280 -12.0427401 -12.7937906  17.7179280 -13.3047401
 -11.8447906  26.8319280  -3.4197401 -11.2097906  26.3189280  -3.9197401
 -12.6737906  26.3689280  -3.5367401 -13.7397906  18.5169280  -9.4067401
 -13.5037906  18.7569280  -8.5107401 -14.6727906  18.3059280  -9.3607401
 -14.1497906  31.5209280 -13.6587401 -13.6487906  31.1389280 -12.9377401
 -13.5077906  31.6459280 -14.3577401 -10.6217906  11.4629280 -12.7367401
 -10.2297906  11.9429280 -12.0067401  -9.9867906  10.7759280 -12.9417401
 -20.0487906  18.7569280  -3.4467401 -20.6147906  19.2289280  -4.0577401
 -20.6547906  18.3039280  -2.8597401 -19.0197906  14.3649280  -0.8397401
 -18.2767906  13.8299280  -1.1177401 -19.7707906  13.9899280  -1.3007401
 -15.5477906  13.9229280  -8.6157401 -16.1627906  14.5009280  -9.0677401
 -15.1717906  13.3819280  -9.3097401 -18.3227906  12.7509280 -10.7747401
 -18.9937906  12.1129280 -10.5347401 -18.0607906  12.5029280 -11.6607401
  -4.6067906  19.6329280  -8.2937401  -4.0227906  19.5939280  -9.0507401
  -5.4837906  19.5299280  -8.6607401 -10.1967906  11.1779280 -16.7397401
 -10.5647906  11.5479280 -17.5417401  -9.5377906  11.8149280 -16.4617401
 -18.8167906  18.4679280  -0.1497401 -18.1067906  17.9249280  -0.4937401
 -18.6767906  19.3269280  -0.5487401  -9.2077906  18.1289280 -16.2177401
  -8.7307906  17.3819280 -15.8577401  -8.5917906  18.8599280 -16.1547401
 -12.1317906  19.7209280 -18.9107401 -11.8497906  20.4009280 -19.5227401
 -12.2187906  20.1749280 -18.0717401 -16.6147906  37.2219280 -11.9937401
 -17.1897906  37.7579280 -11.4487401 -15.8737906  37.7929280 -12.1967401
  -7.1737906  15.0479280 -10.3987401  -7.1927906  15.0479280  -9.4417401
  -6.2717906  15.2819280 -10.6197401  -6.6497906  28.7639280  -9.5447401
  -6.9157906  28.5399280 -10.4357401  -7.0177906  28.0669280  -9.0017401
  -3.9757906  28.1249280  -5.6967401  -3.1597906  28.2439280  -5.2117401
  -3.7697906  28.4069280  -6.5877401 -15.4557906  23.3839280  -5.2797401
 -16.0717906  23.0969280  -4.6057401 -15.1007906  22.5709280  -5.6407401
  -0.6537906  20.4169280 -10.6917401  -0.6097906  21.3679280 -10.7837401
   0.0052094  20.0849280 -11.3017401 -21.2367906  10.2729280  -7.0067401
 -21.1427906   9.8339280  -7.8517401 -21.0317906  11.1899280  -7.1877401
 -13.0147906  21.9989280   1.3162599 -12.9007906  21.0489280   1.3042599
 -12.5877906  22.3019280   0.5142599 -16.9347906  19.5699280   8.9672599
 -16.1277906  19.6449280   9.4752599 -17.6167906  19.4119280   9.6202599
 -10.1817906  21.5819280  -5.0517401 -10.5497906  21.7739280  -5.9147401
  -9.8307906  20.6949280  -5.1327401 -12.6697906  16.9799280 -16.4397401
 -12.0127906  17.0409280 -17.1327401 -12.2187906  17.2889280 -15.6537401
 -18.1057906  23.8559280   3.7422599 -18.2487906  24.3359280   2.9262599
 -17.8417906  24.5269280   4.3712599 -19.8977906  24.8909280  -5.0227401
 -19.2847906  25.5409280  -4.6807401 -20.5677906  24.8109280  -4.3437401
 -12.8397906  10.0569280 -10.2197401 -11.9267906  10.2199280 -10.4567401
 -12.7967906   9.6909280  -9.3367401 -10.2967906  17.8279280 -12.3417401
  -9.8887906  17.3919280 -13.0907401 -10.1947906  17.2089280 -11.6187401
  -2.1307906  22.9909280  -8.5277401  -2.3427906  23.4079280  -7.6927401
  -2.9817906  22.7919280  -8.9187401  -4.5617906  19.2489280   8.2112599
  -4.8727906  19.3089280   7.3082599  -3.6137906  19.3629280   8.1472599
 -17.7467906  20.6339280  -1.2407401 -16.9807906  20.1519280  -1.5527401
 -18.1237906  21.0219280  -2.0307401 -18.3427906  15.4269280   1.7092599
 -18.4367906  15.1529280   0.7962599 -18.3527906  16.3829280   1.6752599
  -6.0137906  17.2729280   2.5272599  -6.6867906  16.6989280   2.1612599
  -5.4287906  16.6839280   3.0032599  -5.4787906   9.7509280  -2.0137401
  -5.6667906  10.6009280  -1.6157401  -6.2207906   9.1999280  -1.7657401
 -18.4557906  33.0849280  -6.2527401 -17.6307906  33.5169280  -6.4757401
 -18.9387906  33.7359280  -5.7447401 -16.7267906  23.2939280  -7.9427401
 -17.3457906  23.8129280  -8.4557401 -16.8167906  23.6279280  -7.0497401
  -9.3717906  24.6089280 -10.8817401  -9.4337906  24.3769280 -11.8077401
 -10.0327906  25.2899280 -10.7597401 -14.3107906  12.5739280 -10.7737401
 -13.9497906  12.8899280 -11.6017401 -13.8317906  11.7639280 -10.5967401
 -13.5907906  38.3939280   0.1682599 -13.6917906  37.7549280  -0.5367401
 -13.0397906  39.0809280  -0.2077401 -16.9147906  34.6089280  -3.6017401
 -17.8357906  34.8369280  -3.7267401 -16.5567906  34.5629280  -4.4877401
 -18.6407906  16.4759280 -12.8277401 -19.2127906  16.7669280 -12.1177401
 -18.4897906  17.2619280 -13.3527401  -1.8817906  16.5579280  -1.5327401
  -2.3227906  16.8759280  -0.7447401  -1.5167906  17.3449280  -1.9377401
 -19.2657906  37.6309280  -4.9977401 -19.3597906  37.1669280  -5.8297401
 -18.7347906  38.3989280  -5.2097401 -15.1667906  24.0249280 -18.8247401
 -14.6747906  23.3419280 -18.3697401 -14.6627906  24.8249280 -18.6747401
 -13.0407906  11.3199280 -13.7447401 -12.1917906  11.1709280 -13.3267401
 -13.0127906  10.7909280 -14.5417401 -13.7867906  24.8349280  -3.7757401
 -14.0837906  24.4459280  -2.9537401 -14.4097906  24.5169280  -4.4297401
  -9.8207906  14.5149280   1.5192599  -9.5457906  15.4289280   1.4482599
  -9.3577906  14.1849280   2.2892599  -8.8207906  18.4549280   9.7102599
  -8.0937906  17.8949280   9.9822599  -8.4587906  18.9899280   9.0032599
  -7.8057906  15.5529280   8.6622599  -7.5807906  15.4779280   9.5892599
  -8.6627906  15.1329280   8.5882599  -3.0367906  25.4569280 -12.5927401
  -3.1867906  26.2319280 -13.1327401  -3.6827906  25.5249280 -11.8897401
   2.1142094  23.7559280  -9.7987401   2.5032094  23.0229280  -9.3207401
   2.5152094  23.7169280 -10.6667401 -17.0707906  19.9859280  -7.0997401
 -17.3027906  20.2049280  -6.1967401 -16.2277906  20.4159280  -7.2407401
  -7.4657906  16.2979280  -5.8157401  -7.3067906  15.5779280  -6.4257401
  -6.5927906  16.5639280  -5.5267401  -8.8707906  36.1829280  -8.1807401
  -9.2007906  36.0729280  -7.2887401  -9.5997906  36.5789280  -8.6587401
 -21.6127906  26.2479280  10.0632599 -20.9077906  26.5339280  10.6432599
 -21.1657906  25.8059280   9.3422599 -20.3367906  21.8689280  -7.8687401
 -19.8457906  21.7539280  -7.0547401 -20.4197906  22.8179280  -7.9657401
 -18.7317906  19.4079280  -9.1947401 -19.4547906  20.0189280  -9.0577401
 -18.1257906  19.5879280  -8.4747401 -20.3427906  10.7049280  -9.8997401
 -20.8917906  11.4429280 -10.1667401 -20.9307906   9.9499280  -9.9187401
 -19.7927906  24.5259280  -7.7897401 -19.8377906  24.5959280  -6.8357401
 -19.7037906  25.4299280  -8.0927401 -10.2387906  22.6269280  -2.6447401
 -10.1247906  22.1809280  -3.4847401  -9.4197906  23.1049280  -2.5137401
  -7.1017906  20.4989280   8.6392599  -6.2647906  20.0389280   8.7122599
  -6.8997906  21.4029280   8.8812599 -14.7677906  26.7199280  -2.1157401
 -14.9997906  26.0129280  -1.5137401 -14.5707906  26.2769280  -2.9407401
 -14.7927906   9.4869280  -5.3227401 -14.6257906  10.2399280  -5.8897401
 -14.2277906   9.6299280  -4.5617401 -10.4827906  31.8749280 -15.3537401
 -11.2417906  31.3589280 -15.6247401  -9.7377906  31.4419280 -15.7697401
 -18.9567906  36.7029280 -13.2757401 -19.2797906  37.5579280 -13.5607401
 -18.0727906  36.8749280 -12.9537401 -20.6897906  30.5669280  -1.5257401
 -19.9707906  30.2449280  -2.0677401 -20.5057906  31.4989280  -1.4107401
  -3.8217906  16.7829280 -13.4167401  -2.9037906  16.8139280 -13.1457401
  -3.9677906  15.8709280 -13.6657401 -17.0097906  24.5139280 -15.0737401
 -16.2177906  24.0779280 -15.3877401 -17.1947906  24.0969280 -14.2317401
  -7.1777906  20.0869280 -15.6627401  -6.3577906  19.6099280 -15.5397401
  -7.3487906  20.4949280 -14.8127401  -9.1917906  23.4939280  -8.1297401
  -9.9767906  23.8059280  -7.6797401  -9.3117906  23.7669280  -9.0387401
 -16.0777906  18.8449280  -2.4737401 -15.1417906  18.6479280  -2.5117401
 -16.4817906  18.0339280  -2.1647401 -13.7107906  28.1659280   2.7142599
 -12.9457906  27.8319280   2.2442599 -13.4657906  29.0559280   2.9692599
 -13.9247906  28.8519280 -17.7867401 -14.5297906  28.2139280 -17.4087401
 -14.0407906  29.6379280 -17.2527401  -9.3687906   8.9999280 -14.2607401
  -8.5517906   8.9789280 -13.7637401  -9.0947906   8.9459280 -15.1767401
 -14.6817906  25.7579280  -9.7017401 -14.7007906  26.6759280  -9.9747401
 -14.8157906  25.7869280  -8.7547401 -10.9517906  17.3069280 -18.5677401
 -11.3397906  18.1379280 -18.8397401 -10.0077906  17.4619280 -18.5937401
  -8.7577906  29.1419280   0.4792599  -9.6307906  28.9559280   0.8232599
  -8.6987906  28.6169280  -0.3197401 -14.0307906  23.2629280  -8.8737401
 -14.9137906  23.1079280  -8.5367401 -14.0827906  24.1219280  -9.2937401
   2.9632094  24.0129280  -3.7907401   3.7822094  23.8879280  -4.2697401
   3.0182094  23.3999280  -3.0577401  -8.0807906  13.4659280 -12.6497401
  -7.5247906  12.6899280 -12.7187401  -7.5447906  14.1049280 -12.1797401
  -8.0717906  26.8099280   9.4562599  -7.7887906  27.6849280   9.1872599
  -7.5517906  26.6189280  10.2362599  -8.0107906  23.9289280  -2.5247401
  -7.8997906  24.7369280  -3.0257401  -7.1397906  23.7419280  -2.1747401
 -15.0847906  21.6879280   7.3822599 -15.3127906  21.1709280   8.1552599
 -14.3867906  22.2709280   7.6792599   4.6402094  20.9169280  -6.7347401
   4.1552094  20.0969280  -6.6477401   5.5032094  20.6529280  -7.0537401
  -3.0087906  19.3889280 -10.5667401  -2.1057906  19.6979280 -10.6447401
  -3.5237906  20.0249280 -11.0637401  -9.1367906  20.4759280 -11.0747401
  -9.8547906  20.8829280 -10.5887401  -9.4217906  19.5729280 -11.2117401
 -18.3807906   8.4059280 -10.2337401 -17.8587906   8.7649280  -9.5167401
 -19.1047906   9.0239280 -10.3367401 -19.6147906  23.7229280 -11.3907401
 -20.2127906  23.8499280 -12.1267401 -20.0867906  23.1429280 -10.7947401
  -9.3207906  18.6839280  -3.9647401  -8.6947906  19.3979280  -3.8447401
  -8.8017906  17.9709280  -4.3397401 -16.4617906  20.9659280   1.4162599
 -17.0487906  21.0719280   0.6672599 -16.0047906  21.8039280   1.4832599
 -20.6187906  10.8689280  -4.3657401 -20.8267906  10.4509280  -5.2017401
 -20.0537906  11.6059280  -4.6007401  -2.4587906   9.6279280  -4.9917401
  -1.5677906   9.5009280  -5.3177401  -2.4847906  10.5449280  -4.7167401
  -9.8597906  26.6269280 -14.6747401  -9.9867906  26.9139280 -13.7707401
  -8.9267906  26.7629280 -14.8407401 -11.6047906  21.6669280  -9.7547401
 -11.3197906  21.6219280  -8.8427401 -12.3437906  22.2749280  -9.7457401
 -17.5237906  25.0329280 -18.1417401 -16.6147906  24.8369280 -17.9127401
 -17.7177906  24.4469280 -18.8727401 -16.8517906   9.7319280  -8.5467401
 -16.1037906  10.3269280  -8.5027401 -17.6107906  10.2859280  -8.3627401
  -8.7757906  17.7379280  -9.3537401  -9.7267906  17.6639280  -9.4357401
  -8.4357906  16.9549280  -9.7877401  -8.9717906  24.4289280   0.5292599
  -9.4297906  24.0419280  -0.2167401  -8.6597906  25.2749280   0.2052599
  -4.8867906  22.3309280  -5.2457401  -5.8397906  22.3509280  -5.1657401
  -4.5677906  22.5799280  -4.3777401  -4.8487906  13.2139280 -19.0517401
  -5.7607906  13.4819280 -18.9357401  -4.6147906  12.7949280 -18.2227401
 -16.7307906  20.1919280 -16.2597401 -17.5507906  20.6849280 -16.2967401
 -16.0927906  20.8139280 -15.9107401  -2.0277906  20.3959280  -1.7847401
  -1.4817906  19.6829280  -2.1157401  -1.9017906  21.1069280  -2.4137401
  -6.7167906  19.1829280  -9.8037401  -7.5057906  18.7939280  -9.4267401
  -6.4797906  18.5979280 -10.5227401 -10.9327906  20.3769280 -16.2457401
 -11.2167906  20.3989280 -15.3327401 -10.5287906  19.5159280 -16.3517401
 -12.2097906  26.6129280  -7.0677401 -13.1417906  26.4499280  -6.9247401
 -12.1287906  27.5669280  -7.0627401  -6.0107906  29.0029280  -3.4167401
  -5.2717906  28.4089280  -3.5477401  -6.0927906  29.4719280  -4.2477401
 -16.4307906  12.3139280 -13.1077401 -15.9887906  12.5969280 -12.3077401
 -16.0357906  12.8439280 -13.8007401  -4.9907906  19.1069280   5.3282599
  -5.7617906  18.6439280   5.0002599  -4.2537906  18.6909280   4.8822599
  -1.8197906  25.2529280 -17.8997401  -1.4627906  26.1269280 -18.0587401
  -2.4077906  25.3659280 -17.1537401   5.6692094  19.3709280  -9.7447401
   6.0832094  19.6109280  -8.9157401   6.0892094  19.9339280 -10.3947401
  -7.9137906  35.0049280 -10.5187401  -7.9767906  35.2609280  -9.5977401
  -7.9657906  34.0489280 -10.5057401 -16.3807906  17.6769280  -9.7177401
 -17.1587906  18.2319280  -9.7747401 -16.6197906  16.8789280 -10.1897401
  -4.8387906  18.6319280 -15.0457401  -4.2487906  19.3759280 -14.9207401
  -4.5867906  18.0089280 -14.3647401  -8.2487906  19.7679280  -6.8807401
  -7.4997906  20.3579280  -6.9697401  -7.9707906  18.9609280  -7.3147401
 -16.9177906  27.7849280  -8.8887401 -17.5807906  28.0299280  -8.2437401
 -17.3897906  27.2489280  -9.5257401 -12.2797906  13.2729280  -8.3007401
 -12.3657906  13.9439280  -8.9787401 -11.4327906  13.4509280  -7.8927401
 -14.4397906  31.8999280  -6.1997401 -13.6487906  32.3699280  -6.4637401
 -15.1587906  32.4339280  -6.5367401 -14.8107906  22.2369280 -15.0987401
 -14.1287906  22.8509280 -15.3697401 -14.8867906  22.3639280 -14.1527401
 -14.2207906  28.4439280  -7.7287401 -15.1207906  28.1189280  -7.7637401
 -14.3117906  29.3909280  -7.6207401 -14.3067906  37.9859280 -14.6657401
 -13.5527906  38.2519280 -15.1927401 -14.1507906  38.3819280 -13.8087401
 -18.7747906  35.6919280  -9.4327401 -17.8397906  35.4839280  -9.4307401
 -18.8127906  36.6229280  -9.6507401  -4.9557906  14.2329280 -13.0657401
  -4.0387906  14.0479280 -13.2677401  -5.4447906  13.8429280 -13.7897401
   2.0082094  15.8659280 -10.7757401   2.1182094  15.1669280 -11.4207401
   2.6862094  16.5039280 -10.9957401 -13.1627906  20.2779280 -11.5097401
 -12.4087906  20.7139280 -11.1127401 -13.5347906  19.7499280 -10.8037401
  -4.9717906  19.7689280   1.6872599  -5.2347906  18.9329280   2.0712599
  -5.7887906  20.2589280   1.5942599  -6.4057906  12.0649280  -0.3377401
  -5.7027906  12.7149280  -0.3407401  -6.6157906  11.9429280   0.5882599
 -11.1677906  16.5629280   4.2212599 -10.8927906  15.9299280   4.8852599
 -10.8817906  17.4089280   4.5652599  -4.4737906  17.0719280  -2.3697401
  -4.6177906  17.8869280  -1.8887401  -3.5577906  16.8519280  -2.2007401
 -14.9887906  18.1409280 -17.4837401 -14.1137906  17.8309280 -17.2517401
 -15.4427906  18.2299280 -16.6457401 -15.3457906  17.9899280   7.1032599
 -15.7337906  18.5869280   7.7432599 -14.9437906  18.5639280   6.4522599
  -9.3247906  16.7959280  -1.6037401 -10.2407906  16.9089280  -1.3477401
  -9.0947906  17.6159280  -2.0407401   4.3202094  21.9259280 -12.8097401
   3.4002094  22.1599280 -12.9317401   4.7182094  22.7099280 -12.4317401
  -7.1137906  22.0819280   2.1232599  -7.8837906  22.6479280   2.0672599
  -7.0677906  21.8299280   3.0452599 -17.4367906  14.2869280 -14.8457401
 -16.8747906  15.0289280 -15.0687401 -17.6857906  14.4399280 -13.9337401
  -1.3127906  29.3269280   2.2772599  -1.2827906  30.2809280   2.2032599
  -1.5957906  29.0289280   1.4132599  -6.6137906  21.2199280   4.9412599
  -5.8607906  20.8169280   5.3732599  -7.3047906  20.5589280   4.9972599
  -2.5047906  21.1179280   2.1342599  -3.2467906  21.1429280   2.7372599
  -2.7787906  21.6589280   1.3932599   0.7742094  19.7119280 -16.0447401
  -0.1177906  20.0579280 -16.0627401   1.2992094  20.3799280 -16.4857401
 -14.9327906  34.4639280   4.3252599 -14.2837906  34.6659280   3.6512599
 -15.7397906  34.2969280   3.8382599  -4.3957906  23.2069280   1.3402599
  -3.9727906  23.6279280   2.0892599  -5.2877906  23.0279280   1.6382599
  -7.8367906  23.6009280   4.5692599  -7.1817906  24.1549280   4.1442599
  -7.3257906  22.9339280   5.0272599  -2.6857906  25.8499280  -2.1287401
  -1.9557906  26.4529280  -2.2677401  -2.5477906  25.5049280  -1.2467401
  -5.0897906  17.4509280  -4.8547401  -4.6047906  18.2759280  -4.8527401
  -5.0497906  17.1469280  -3.9477401  -5.7537906  12.7269280 -15.6917401
  -5.4897906  11.8639280 -15.3727401  -6.4797906  12.5489280 -16.2907401
 -10.6697906  21.4859280   4.0952599 -10.0167906  21.5929280   3.4032599
 -10.9847906  22.3729280   4.2672599 -13.5127906  13.1849280  -2.7067401
 -14.3347906  13.2019280  -3.1967401 -13.7817906  13.1459280  -1.7887401
 -12.5277906  18.3229280  -6.7877401 -11.9717906  17.5509280  -6.8957401
 -12.6297906  18.4139280  -5.8397401 -11.2927906  19.0909280   5.2472599
 -11.0377906  19.9239280   4.8492599 -12.0587906  18.8109280   4.7462599
   6.0182094  15.7079280 -17.0977401   6.0572094  15.4139280 -16.1877401
   6.7272094  15.2329280 -17.5327401  -9.9807906  14.5319280   6.4702599
 -10.5907906  15.2359280   6.6882599 -10.5227906  13.8679280   6.0442599
  -0.7387906  17.8229280  10.0982599   0.1472094  17.4629280  10.0452599
  -1.3127906  17.0679280   9.9732599  -4.9757906  14.2369280  -1.0337401
  -4.0727906  14.0559280  -1.2967401  -5.0267906  15.1919280  -0.9907401
  -6.9167906  27.8429280   5.4802599  -7.2247906  27.2739280   6.1852599
  -5.9627906  27.8259280   5.5572599 -10.5027906  26.2739280  -0.9107401
 -11.2127906  26.2229280  -1.5507401  -9.8527906  26.8459280  -1.3187401
  -1.2357906  18.5289280  -5.8277401  -2.0107906  18.9509280  -5.4567401
  -1.1127906  18.9549280  -6.6757401 -19.7697906  21.3089280   6.2232599
 -19.2777906  21.1609280   5.4162599 -20.0807906  20.4399280   6.4782599
  -8.1327906  37.6749280   7.3152599  -7.4397906  38.2079280   6.9242599
  -8.4747906  38.2129280   8.0292599 -17.1387906  32.0559280 -19.3037401
 -16.7177906  32.3049280 -18.4807401 -16.4287906  31.7009280 -19.8377401
 -19.7847906  26.7039280 -17.9527401 -19.6557906  27.6519280 -17.9237401
 -18.9397906  26.3549280 -18.2337401 -17.1487906  16.6109280  -1.1337401
 -16.5497906  16.3149280  -0.4477401 -17.6237906  15.8219280  -1.3937401
 -16.9017906  14.6999280   3.7902599 -16.9487906  13.7439280   3.7752599
 -17.5547906  14.9829280   3.1512599 -19.2577906  21.2179280 -16.1107401
 -20.0907906  20.8499280 -15.8137401 -19.3507906  22.1609280 -15.9747401
 -10.7327906  10.7239280   6.2692599 -10.9177906  10.7779280   7.2062599
 -11.1377906  11.5079280   5.8982599 -19.3397906  18.0389280   7.7612599
 -19.1037906  17.1529280   7.4872599 -18.7147906  18.2509280   8.4542599
  -2.6967906  12.2729280  -4.3587401  -2.2047906  12.9369280  -4.8417401
  -3.5487906  12.2419280  -4.7937401 -13.6627906  38.1249280   3.1182599
 -12.8777906  38.6699280   3.1682599 -13.6447906  37.7579280   2.2342599
 -12.5227906  25.3579280   6.8502599 -12.1997906  24.8199280   6.1262599
 -12.2777906  26.2519280   6.6122599 -17.1167906  14.9969280   8.5792599
 -16.5397906  15.2199280   7.8492599 -16.5827906  15.1429280   9.3602599
 -13.7897906  18.5359280   4.0172599 -14.4477906  19.1289280   4.3802599
 -14.2757906  17.7399280   3.8012599 -20.1767906  17.6239280  -6.7307401
 -20.6877906  18.2449280  -6.2127401 -20.8287906  17.0429280  -7.1207401
 -12.6927906  10.1989280 -15.9737401 -13.2427906  10.2699280 -16.7547401
 -11.8387906  10.5299280 -16.2517401  -7.2557906  33.9859280   6.9002599
  -7.9907906  33.4329280   6.6362599  -6.7227906  34.0699280   6.1092599
 -15.6577906  15.5759280   6.1552599 -16.1387906  15.4619280   5.3362599
 -15.5387906  16.5219280   6.2342599  -8.5017906  19.2559280   5.6142599
  -9.3397906  19.1219280   5.1722599  -8.2027906  18.3739280   5.8342599
   1.9552094  14.5059280  -2.2397401   1.0162094  14.4659280  -2.4217401
   2.3692094  14.1769280  -3.0377401 -17.6557906  19.9049280  -4.2677401
 -18.4197906  19.4849280  -3.8737401 -16.9057906  19.4589280  -3.8727401
  -6.5077906  26.2819280  -0.7357401  -6.3427906  26.9699280  -1.3817401
  -6.1457906  25.4899280  -1.1317401 -11.3897906   9.8499280   2.9782599
 -11.0147906   9.7309280   3.8512599 -10.6397906  10.0559280   2.4202599
 -18.4387906  10.4709280   3.2062599 -17.7677906  11.0229280   3.6092599
 -19.0587906  11.0899280   2.8222599 -15.0107906  24.9799280 -12.3217401
 -15.1977906  24.0499280 -12.1967401 -14.9797906  25.3409280 -11.4357401
 -13.2667906  23.2809280   8.6052599 -12.8437906  24.0459280   8.2142599
 -13.7527906  23.6309280   9.3522599 -21.0377906   9.0619280   9.5502599
 -20.2377906   9.5079280   9.8282599 -21.7047906   9.7489280   9.5422599
 -10.0817906  20.6499280  -0.4277401 -10.5837906  19.8599280  -0.6247401
 -10.1607906  21.1869280  -1.2167401 -19.7737906  36.3919280   9.1842599
 -19.5467906  36.1979280   8.2742599 -19.9077906  37.3389280   9.2012599
 -13.9897906  27.7149280   9.4872599 -13.7527906  27.2009280  10.2592599
 -14.5847906  28.3869280   9.8192599 -12.0007906  12.9459280   5.3202599
 -12.8997906  13.0089280   5.6432599 -12.0907906  12.8999280   4.3682599
 -14.6537906  19.8439280  10.1312599 -13.7057906  19.9739280  10.1392599
 -14.8227906  19.2579280  10.8692599 -15.4017906  16.6829280   3.1532599
 -15.8087906  15.8249280   3.2712599 -15.9147906  17.0989280   2.4602599
 -16.8537906  10.9219280  10.2662599 -17.4097906  10.8499280  11.0412599
 -17.3377906  10.4639280   9.5792599  -9.7787906  22.8379280 -16.1447401
  -9.3827906  23.1129280 -16.9707401 -10.2107906  22.0089280 -16.3497401
  -8.1547906  10.0799280   4.9422599  -7.5137906   9.9869280   5.6472599
  -8.9217906  10.4659280   5.3652599 -13.5927906  19.2679280   1.4152599
 -14.5167906  19.4249280   1.2212599 -13.5847906  18.9799280   2.3282599
 -14.6237906  25.5889280   4.2042599 -13.7437906  25.5039280   4.5702599
 -14.8377906  26.5169280   4.3052599 -15.6017906  16.4419280 -13.9997401
 -16.1707906  17.1939280 -13.8347401 -14.8437906  16.5849280 -13.4337401
   7.3032094  16.6009280  -7.9637401   7.3802094  15.6869280  -8.2387401
   6.4812094  16.8999280  -8.3517401  -1.7477906  18.0759280 -17.3717401
  -1.2797906  17.4529280 -16.8167401  -1.2677906  18.0669280 -18.2007401
 -17.9177906  27.2889280 -12.8947401 -17.5207906  28.1339280 -12.6817401
 -17.4037906  26.9619280 -13.6327401 -21.9347906  37.5689280 -18.1687401
 -21.6347906  38.0809280 -18.9197401 -21.7747906  36.6589280 -18.4187401
 -15.9037906  13.0059280  -3.9147401 -16.3857906  13.5579280  -4.5297401
 -16.5307906  12.8209280  -3.2157401  -7.5617906  16.7149280   5.9472599
  -8.2757906  16.0819280   6.0182599  -7.0907906  16.6399280   6.7772599
  -6.6607906  25.2709280 -12.4727401  -7.3657906  24.9769280 -13.0507401
  -7.1027906  25.5129280 -11.6587401 -21.1957906  18.0969280   5.8202599
 -20.4867906  17.9729280   6.4512599 -20.7597906  18.4039280   5.0262599
  -7.3697906   8.5969280  -6.1567401  -6.7047906   7.9469280  -5.9277401
  -7.2247906   9.3159280  -5.5427401   1.2142094  27.8159280   2.0242599
   1.4722094  26.9319280   2.2862599   0.3592094  27.9479280   2.4352599
  -8.4167906  26.6309280  -8.6457401  -8.4417906  26.5789280  -7.6907401
  -8.5257906  25.7249280  -8.9377401 -17.6977906  12.4419280   7.4872599
 -18.6257906  12.5769280   7.2962599 -17.4637906  13.1659280   8.0672599
 -18.2447906  21.1969280   3.9592599 -18.2857906  22.1429280   4.1012599
 -17.9287906  21.1039280   3.0602599  -8.1797906  31.5789280  -9.2197401
  -7.9917906  32.0439280 -10.0357401  -8.0567906  30.6549280  -9.4367401
  -7.4967906  20.4909280  -3.0517401  -7.8777906  21.2489280  -2.6077401
  -6.6397906  20.3779280  -2.6407401  -0.5197906  26.2469280   4.4222599
  -0.6297906  25.4619280   4.9592599  -0.0967906  26.8779280   5.0032599
 -13.0967906  25.6999280 -18.7417401 -12.3317906  25.3249280 -19.1777401
 -12.7347906  26.1969280 -18.0077401 -13.1697906  36.2629280   5.5862599
 -13.3557906  36.0129280   4.6812599 -12.4227906  36.8579280   5.5222599
 -15.6017906  20.2509280   5.0082599 -16.4427906  20.5719280   4.6802599
 -15.2527906  20.9769280   5.5242599 -22.6457906  17.2439280   0.9852599
 -22.9297906  16.4409280   1.4212599 -22.8317906  17.9389280   1.6162599
 -11.4477906  18.3659280  -0.6307401 -12.0617906  17.7079280  -0.9557401
 -11.5997906  18.3909280   0.3142599  -8.4257906  29.3709280 -18.3347401
  -9.2957906  29.6559280 -18.6137401  -7.9637906  29.1769280 -19.1497401
 -12.0357906  18.4029280  -4.0307401 -11.1027906  18.5959280  -4.1247401
 -12.0657906  17.6249280  -3.4747401 -19.2557906  15.6269280   6.6582599
 -18.4557906  15.1079280   6.7422599 -19.4017906  15.6909280   5.7142599
  -2.9847906  24.1849280  -6.2987401  -2.2257906  24.1369280  -5.7177401
  -3.5187906  23.4269280  -6.0597401 -21.8217906  22.6159280  10.2532599
 -21.2737906  23.3799280  10.0712599 -21.8637906  22.5729280  11.2082599
 -11.4667906  21.6299280   9.4982599 -12.1067906  22.1769280   9.0432599
 -10.9087906  21.2829280   8.8022599  -5.8497906  25.0499280   3.2442599
  -6.0057906  25.9729280   3.4452599  -4.9497906  25.0239280   2.9202599
   4.1172094  20.3439280 -17.5247401   4.1082094  20.9189280 -16.7587401
   4.8212094  19.7199280 -17.3497401  -6.9787906  11.7469280 -17.8927401
  -6.4197906  10.9709280 -17.9307401  -7.3237906  11.8379280 -18.7807401
 -21.9377906  11.8539280   4.5742599 -22.2567906  10.9769280   4.3632599
 -21.1747906  11.9749280   4.0082599  -8.9197906  28.1559280  -2.1357401
  -8.9927906  28.9609280  -2.6487401  -8.1077906  27.7499280  -2.4407401
 -12.2937906  15.6139280  -3.4587401 -12.2687906  14.7599280  -3.0267401
 -12.6717906  15.4359280  -4.3197401  -6.9017906  36.0809280   1.5442599
  -7.3517906  35.3829280   1.0682599  -7.5147906  36.3349280   2.2332599
  -7.2547906  12.6249280   6.7292599  -7.9497906  13.2829280   6.7402599
  -7.0217906  12.5369280   5.8052599  -5.1757906  38.5099280   3.2652599
  -5.3847906  37.8099280   2.6472599  -5.5047906  38.1929280   4.1062599
 -13.4347906  16.5199280   8.8712599 -14.0107906  16.6129280   8.1122599
 -12.6257906  16.9619280   8.6142599 -14.8657906  15.5329280   0.3502599
 -14.8887906  14.5769280   0.3232599 -14.0257906  15.7419280   0.7602599
  -5.9137906  38.3799280 -13.7077401  -6.0627906  37.6449280 -13.1117401
  -6.1967906  38.0559280 -14.5627401 -12.9827906  35.6649280 -13.9847401
 -13.8797906  35.8829280 -14.2387401 -12.4447906  35.9789280 -14.7117401
  -4.3837906  37.8319280   8.9432599  -4.8697906  37.0139280   8.8402599
  -4.0827906  37.8199280   9.8522599 -21.6907906  14.4899280  -9.7447401
 -22.1637906  14.7569280 -10.5327401 -20.8917906  15.0169280  -9.7537401
 -11.6607906  31.3429280   1.3972599 -11.6277906  30.3949280   1.5202599
 -12.2917906  31.4709280   0.6882599 -11.7257906  34.1429280 -12.0607401
 -11.9187906  34.6249280 -11.2577401 -12.0527906  34.7059280 -12.7627401
 -20.1377906  27.2189280  -8.4097401 -19.6287906  27.7659280  -7.8117401
 -19.7577906  27.3889280  -9.2717401  -8.8457906  23.9679280 -13.5947401
  -8.6947906  23.0299280 -13.7087401  -9.4297906  24.2059280 -14.3147401
 -20.6447906  13.1129280  -7.2957401 -21.1207906  13.4539280  -8.0527401
 -20.9687906  13.6269280  -6.5567401 -13.0907906  36.5059280 -10.7697401
 -13.3907906  36.4979280 -11.6777401 -13.6657906  37.1339280 -10.3327401
 -11.0847906  28.8239280   1.8852599 -11.1917906  27.9509280   1.5082599
 -10.4707906  28.6989280   2.6102599   5.2402094  34.3259280  -7.1807401
   5.4362094  35.1669280  -6.7677401   4.2862094  34.3139280  -7.2607401
  -8.9527906  15.1749280 -16.9157401  -9.7447906  15.6379280 -17.1917401
  -9.2617906  14.5299280 -16.2797401 -17.8127906  37.9559280  -1.1417401
 -17.6787906  38.1049280  -0.2057401 -18.1977906  38.7719280  -1.4617401
 -12.3067906  28.3029280 -13.2757401 -12.9567906  27.9499280 -13.8827401
 -12.8177906  28.8139280 -12.6477401  -9.7217906  13.5619280 -14.7217401
  -9.1297906  13.5529280 -13.9697401 -10.4147906  12.9439280 -14.4887401
 -19.4857906  33.0409280  -0.0177401 -18.6067906  32.6649280  -0.0627401
 -19.3957906  33.9089280  -0.4107401 -22.7747906  29.9139280 -14.6867401
 -21.8817906  29.5909280 -14.8027401 -23.3227906  29.2729280 -15.1407401
  -7.0517906  34.3179280 -14.6397401  -7.1717906  33.5359280 -15.1797401
  -7.8927906  34.4349280 -14.1967401  -8.5947906  28.7649280  -6.1947401
  -8.3517906  29.6519280  -6.4607401  -7.7677906  28.3549280  -5.9407401
  -5.2047906  29.9079280   2.0642599  -5.6997906  30.6349280   2.4422599
  -5.6077906  29.1239280   2.4372599  -9.9697906  33.4089280   2.5172599
 -10.3247906  32.6899280   1.9942599  -9.4857906  33.9449280   1.8892599
 -18.1347906  30.9259280  -2.8007401 -17.5357906  31.6719280  -2.7697401
 -17.6017906  30.1799280  -2.5247401 -17.0147906  29.8329280 -12.6207401
 -16.3587906  30.2159280 -12.0387401 -17.8307906  29.8709280 -12.1217401
  -5.3277906  36.1079280 -11.6457401  -6.1737906  35.7249280 -11.4157401
  -4.9407906  35.4849280 -12.2607401 -20.5027906  27.2229280 -13.8617401
 -21.1497906  27.0619280 -13.1737401 -19.6577906  27.0879280 -13.4327401
  -8.5067906  37.2179280 -12.0137401  -8.0567906  36.5829280 -11.4577401
  -8.8457906  36.6999280 -12.7437401   1.5062094  33.1519280  -5.2797401
   2.0842094  32.4189280  -5.4877401   1.7362094  33.8279280  -5.9177401
 -16.3167906  27.3399280 -17.0057401 -16.9087906  27.9549280 -17.4387401
 -16.8157906  26.5249280 -16.9507401 -16.9607906  35.8239280  10.5532599
 -17.5567906  35.9869280   9.8212599 -17.4507906  35.2449280  11.1372599
  -6.3757906  27.5029280   1.8572599  -6.3087906  26.7919280   1.2202599
  -7.1187906  28.0259280   1.5562599 -15.5477906  31.5249280 -15.9937401
 -15.2397906  32.2879280 -16.4817401 -15.1667906  31.6279280 -15.1217401
 -12.4367906  31.9139280  -2.2677401 -13.1847906  31.6429280  -1.7357401
 -12.2987906  31.1869280  -2.8757401  -7.3677906  33.5369280  -5.3717401
  -6.5667906  33.6469280  -5.8837401  -7.7317906  32.7039280  -5.6717401
 -13.6457906  13.8739280 -13.6377401 -13.9617906  14.1069280 -14.5107401
 -13.3937906  12.9539280 -13.7107401 -18.5397906  28.5829280  -6.8167401
 -18.9687906  29.3919280  -6.5397401 -17.7787906  28.5059280  -6.2407401
 -19.5657906  23.9199280 -16.1757401 -19.1767906  24.5779280 -16.7517401
 -19.0127906  23.9279280 -15.3947401 -18.6337906  26.2169280 -10.4567401
 -18.5817906  26.5979280 -11.3327401 -19.2207906  25.4679280 -10.5547401
 -11.6487906  37.7989280  -5.2867401 -10.8527906  37.4579280  -4.8787401
 -11.9837906  38.4419280  -4.6607401 -11.5417906  37.8599280 -18.6317401
 -11.6687906  37.5369280 -19.5237401 -12.0867906  38.6459280 -18.5817401
 -12.6487906  22.7719280  -1.4527401 -13.1067906  21.9349280  -1.5327401
 -11.8757906  22.6769280  -2.0087401 -16.1077906  33.3029280 -12.3617401
 -15.4987906  32.8199280 -12.9197401 -16.7607906  33.6549280 -12.9667401
 -22.0317906  26.2139280 -16.3157401 -21.4377906  26.2689280 -15.5667401
 -21.5067906  26.5049280 -17.0607401 -15.8997906  34.4919280  -6.3687401
 -16.0517906  35.4279280  -6.2407401 -14.9517906  34.3899280  -6.2847401
 -12.8437906  33.9409280  -7.8707401 -12.7517906  34.6399280  -7.2227401
 -13.2817906  34.3589280  -8.6127401  -9.9567906  10.4879280  -9.7777401
  -9.1787906   9.9919280  -9.5217401 -10.1737906  11.0099280  -9.0057401
 -11.9067906  30.7079280 -17.4407401 -11.9417906  29.8239280 -17.8067401
 -12.3787906  31.2489280 -18.0737401 -22.1977906  23.1789280 -16.9527401
 -22.8267906  23.8899280 -16.8337401 -21.3467906  23.5789280 -16.7757401
  -6.9597906  32.3189280 -11.4467401  -6.8987906  32.2089280 -12.3957401
  -6.0557906  32.4459280 -11.1607401 -15.1347906  24.0729280  -1.1587401
 -15.4317906  24.0419280  -0.2497401 -14.3577906  23.5139280  -1.1777401
 -18.4477906  30.9979280  -8.4807401 -18.9867906  31.4479280  -7.8297401
 -17.7567906  31.6249280  -8.6947401 -11.1827906  31.6949280  -8.1607401
 -10.8987906  31.6889280  -9.0747401 -11.8627906  32.3679280  -8.1247401
 -19.5047906  30.7849280  -5.2117401 -19.1677906  31.5409280  -5.6927401
 -18.9947906  30.7679280  -4.4017401  -2.7267906  11.4679280 -17.9677401
  -2.3797906  10.7839280 -18.5407401  -3.5877906  11.1439280 -17.7027401
  -3.5917906  37.3379280 -10.0787401  -4.1307906  37.7259280  -9.3897401
  -4.2147906  37.0979280 -10.7647401 -21.8207906   8.4309280   6.3512599
 -21.0357906   8.5019280   5.8082599 -21.5707906   8.8249280   7.1872599
 -22.0307906  25.1229280  -3.4687401 -22.6347906  24.6889280  -2.8657401
 -22.5057906  25.8979280  -3.7677401 -16.0737906  32.6139280  -9.4007401
 -15.9737906  33.5219280  -9.1157401 -15.9437906  32.6439280 -10.3487401
 -12.3797906   9.8799280  -3.6637401 -12.2137906   9.9079280  -2.7207401
 -12.1047906  10.7399280  -3.9807401 -11.5037906  27.6559280   5.9542599
 -10.7727906  27.7669280   5.3462599 -11.3327906  28.2879280   6.6522599
 -19.4817906  27.8089280  -1.1847401 -20.3707906  28.0019280  -0.8857401
 -18.9177906  28.1129280  -0.4747401 -19.7067906  30.3819280 -11.2057401
 -19.3937906  31.1389280 -10.7097401 -20.6607906  30.4589280 -11.1847401
  -7.3757906  31.6899280   0.6232599  -6.8067906  31.5479280  -0.1327401
  -7.8117906  30.8489280   0.7572599 -15.7507906  29.8859280 -10.1087401
 -15.5497906  30.6479280  -9.5647401 -16.2637906  29.3129280  -9.5387401
 -10.3287906  34.4559280   9.8482599 -10.6537906  34.4119280  10.7472599
 -11.1117906  34.5979280   9.3162599 -11.5427906  34.5309280  -2.8597401
 -10.9187906  34.4609280  -3.5817401 -11.5427906  33.6619280  -2.4567401
 -11.9467906  26.9079280 -16.6217401 -12.1407906  27.8399280 -16.5167401
 -11.2507906  26.7349280 -15.9867401  -9.1687906   8.8789280 -17.5387401
  -9.9497906   8.6559280 -18.0447401  -9.1637906   9.8359280 -17.5127401
 -19.6387906   9.0189280 -14.8117401 -18.6837906   9.0859280 -14.8177401
 -19.9347906   9.8439280 -14.4277401 -13.3917906  29.8909280 -11.4117401
 -13.9957906  29.9179280 -10.6697401 -12.6017906  30.3289280 -11.0937401
   6.0422094  32.3489280  -8.9237401   5.3202094  31.7259280  -9.0137401
   5.7332094  32.9829280  -8.2767401 -13.0067906  24.3119280   2.4082599
 -13.9167906  24.5869280   2.5162599 -13.0637906  23.4029280   2.1142599
 -14.8187906  29.7579280  -4.7257401 -13.9207906  29.7679280  -4.3947401
 -14.8347906  30.4379280  -5.3987401   2.6512094  33.6069280 -10.8027401
   1.7642094  33.8549280 -11.0617401   3.0882094  33.3859280 -11.6257401
   1.6632094  29.2639280  -0.3617401   2.5072094  29.5279280  -0.7287401
   1.8892094  28.6719280   0.3562599 -14.5717906  28.1609280   5.8772599
 -14.7647906  27.6209280   6.6442599 -13.6167906  28.1599280   5.8172599
  -9.8617906   9.7409280  -6.8507401  -9.2387906   9.0409280  -6.6537401
 -10.7057906   9.3999280  -6.5557401   7.0302094  35.3319280 -10.4367401
   6.4242094  34.6339280 -10.6897401   7.6192094  34.9199280  -9.8047401
  -9.5387906  34.4569280 -13.8217401  -9.7347906  34.2909280 -12.8997401
 -10.2997906  34.1199280 -14.2937401  -8.8447906  31.6319280  -6.6347401
  -9.7517906  31.5539280  -6.9327401  -8.3377906  31.7479280  -7.4377401
 -14.8467906  31.6369280   5.2142599 -14.1817906  31.1369280   4.7412599
 -14.8577906  32.4909280   4.7802599   6.0062094  37.3989280   0.1622599
   6.5372094  37.2339280   0.9412599   5.1042094  37.2749280   0.4562599
 -15.6127906  10.6209280   0.4112599 -15.0607906   9.8549280   0.2542599
 -16.3637906  10.2799280   0.8982599  -6.1467906  20.7189280 -18.1887401
  -6.6687906  21.4739280 -18.4617401  -6.5807906  20.4009280 -17.3967401
 -11.3687906  24.2999280   4.5582599 -10.7247906  24.8249280   4.0822599
 -12.0267906  24.0739280   3.9012599  -8.3117906  21.2879280 -13.5137401
  -8.4397906  21.1099280 -12.5817401  -9.1947906  21.2769280 -13.8837401
 -11.9167906  28.1859280  -9.4487401 -12.7087906  28.2429280  -8.9147401
 -11.2027906  28.3689280  -8.8377401  -3.7867906  23.1339280 -13.7797401
  -3.6337906  23.9769280 -13.3537401  -3.9907906  22.5359280 -13.0607401
 -16.0437906  36.9089280  -5.1527401 -15.4527906  37.6419280  -4.9787401
 -16.8487906  37.1339280  -4.6867401 -13.0427906  31.0369280   7.2942599
 -13.5297906  31.0749280   6.4702599 -13.0797906  31.9299280   7.6362599
   4.5402094   8.7459280  -6.5527401   4.6972094   8.1089280  -5.8557401
   5.1242094   9.4759280  -6.3467401 -10.6997906  26.7849280 -11.6487401
 -11.0677906  27.0129280 -10.7947401 -11.2477906  27.2539280 -12.2787401
   1.8502094  28.0109280  -6.9007401   2.0922094  27.3019280  -6.3057401
   1.3782094  27.5769280  -7.6117401 -21.3587906  38.1469280  -3.4927401
 -21.3797906  39.0979280  -3.3817401 -20.5277906  37.9759280  -3.9357401
 -15.9797906  28.9779280  -1.4957401 -15.3617906  28.2809280  -1.7147401
 -16.5377906  28.5999280  -0.8157401   2.4072094  23.3019280 -18.0327401
   2.5052094  22.5219280 -18.5797401   1.6242094  23.7369280 -18.3737401
  -3.9447906  36.0459280 -16.0367401  -3.0857906  35.7639280 -15.7237401
  -4.5597906  35.7129280 -15.3837401 -14.4547906  12.6139280 -17.5257401
 -14.3637906  13.2569280 -16.8227401 -15.2757906  12.1599280 -17.3317401
 -11.6107906  37.1989280 -15.9167401 -11.6007906  38.0299280 -15.4407401
 -11.2077906  37.4019280 -16.7617401 -16.6797906  31.9419280   0.7142599
 -16.4857906  31.7249280  -0.1977401 -15.8527906  32.2779280   1.0622599
 -12.6017906  36.8699280  -7.4237401 -11.8047906  36.7319280  -7.9357401
 -12.2897906  37.0399280  -6.5347401  -5.4247906  30.7999280   8.0402599
  -5.1737906  31.3089280   8.8112599  -4.6917906  30.9069280   7.4332599
 -21.1317906  36.8859280 -11.8037401 -20.4627906  36.3769280 -12.2597401
 -21.9167906  36.3399280 -11.8417401   3.1112094  31.1969280  -6.1817401
   2.9152094  31.1799280  -7.1187401   3.2692094  30.2819280  -5.9517401
  -3.5027906  35.1129280  -5.3537401  -3.2017906  35.3109280  -4.4667401
  -3.4507906  34.1589280  -5.4177401 -19.4587906  33.1449280 -10.3197401
 -19.0567906  33.9809280 -10.0847401 -20.2947906  33.3849280 -10.7207401
 -21.3997906  35.1909280 -18.9897401 -20.6237906  35.5039280 -19.4547401
 -21.5777906  34.3319280 -19.3717401   6.7962094  36.3039280  -4.0627401
   7.2922094  35.5699280  -4.4267401   7.4522094  36.9829280  -3.9047401
  -0.4467906  23.0659280 -10.6977401  -1.0727906  23.1019280  -9.9747401
   0.3252094  23.5279280 -10.3697401 -21.3007906  27.4959280  -5.7797401
 -21.9907906  27.8809280  -6.3197401 -20.8077906  26.9389280  -6.3827401
 -18.8677906  35.3029280  -1.2397401 -19.0497906  35.2559280  -2.1777401
 -18.3597906  36.1079280  -1.1347401  -9.5327906  30.4879280  -3.7737401
 -10.4847906  30.3949280  -3.7487401  -9.2927906  30.2619280  -4.6717401
  -9.8567906  29.8019280 -13.0217401  -9.3267906  30.2419280 -13.6867401
 -10.4097906  29.1969280 -13.5167401 -19.3717906  14.6169280 -17.4807401
 -18.8097906  15.2839280 -17.8757401 -18.8367906  14.2349280 -16.7847401
  -5.8007906  32.0339280 -19.2867401  -5.3457906  32.8039280 -18.9457401
  -6.6717906  32.3539280 -19.5227401 -15.6177906  30.9109280   8.7272599
 -16.2047906  30.8009280   7.9792599 -14.7387906  30.8359280   8.3542599
  -4.5537906  21.0339280 -11.9497401  -5.1057906  20.4059280 -12.4157401
  -5.1537906  21.4859280 -11.3567401 -22.6757906  11.9949280 -13.5487401
 -22.8207906  11.0809280 -13.7907401 -22.7397906  12.0029280 -12.5937401
  -7.4727906  29.2889280   8.7482599  -8.1047906  29.9649280   8.5062599
  -6.6327906  29.6199280   8.4282599   3.5632094  31.5839280   2.7612599
   3.0942094  32.2769280   2.2972599   4.4292094  31.5659280   2.3542599
 -14.1167906  13.3719280   6.8332599 -14.2467906  13.2709280   7.7762599
 -14.8457906  13.9229280   6.5472599 -17.7577906   9.4359280   8.2312599
 -17.5757906  10.2449280   7.7542599 -17.8887906   8.7789280   7.5472599
 -10.1967906  30.4849280   5.1412599 -10.0997906  30.2059280   6.0522599
  -9.6727906  29.8589280   4.6412599 -18.0647906  34.8659280 -17.3047401
 -17.9817906  34.1449280 -16.6807401 -18.8847906  35.2969280 -17.0667401
 -13.5367906  34.8989280  -4.6827401 -13.0817906  34.6929280  -3.8667401
 -13.7037906  35.8409280  -4.6337401   0.5592094  37.7899280  -2.4147401
   0.4952094  36.8349280  -2.3997401   0.1822094  38.0419280  -3.2567401
  -6.5567906  31.8849280   3.0722599  -6.9077906  31.9889280   2.1882599
  -7.3167906  31.9919280   3.6462599 -15.8177906  24.4309280   1.3482599
 -16.3917906  24.1729280   2.0702599 -15.8187906  25.3879280   1.3722599
  -6.4017906  36.3669280  -3.3457401  -6.0197906  36.8889280  -2.6417401
  -5.8307906  36.5239280  -4.0987401  -8.6707906  32.5949280   4.6982599
  -9.1817906  31.8139280   4.9082599  -9.2307906  33.0959280   4.1052599
  -9.2747906  25.4329280   2.9602599  -8.7117906  24.8229280   3.4372599
  -9.3837906  25.0339280   2.0972599  -9.3297906  27.9159280   4.1382599
  -9.2107906  27.1069280   3.6402599  -8.6167906  27.9129280   4.7762599
 -17.2947906  29.2999280 -18.7517401 -18.1997906  29.3389280 -19.0617401
 -16.9437906  30.1729280 -18.9257401 -18.8927906  32.1689280   8.5182599
 -19.0377906  31.2329280   8.3782599 -18.2057906  32.2089280   9.1832599
   0.5282094  33.8039280   6.8832599   1.0612094  34.2209280   6.2052599
  -0.1687906  34.4349280   7.0612599  -1.7127906  35.6329280   6.8922599
  -2.0607906  35.7749280   6.0122599  -1.4627906  36.5059280   7.1952599
  -8.1147906  34.2199280   0.2572599  -7.9847906  34.2299280  -0.6917401
  -8.1757906  33.2919280   0.4812599 -11.1547906  37.9239280   5.7372599
 -11.2927906  38.7119280   6.2632599 -10.2187906  37.7409280   5.8202599
 -17.1857906  33.9679280   2.6812599 -16.6777906  34.3629280   1.9722599
 -17.5457906  33.1669280   2.3012599 -14.3527906  10.9899280   5.5432599
 -14.7207906  10.2479280   6.0222599 -14.3437906  11.7049280   6.1792599
 -19.2427906  29.4089280   8.5452599 -20.1167906  29.2959280   8.1722599
 -18.6487906  29.0969280   7.8642599   1.7082094  25.4369280   3.0032599
   2.3082094  24.7429280   3.2762599   0.8802094  25.2229280   3.4322599
 -11.1147906  28.5149280  10.3872599 -12.0027906  28.3349280  10.0782599
 -10.8037906  27.6769280  10.7272599 -12.1757906  29.5109280  -3.6377401
 -11.7617906  28.7619280  -3.2097401 -11.9237906  29.4319280  -4.5577401
 -15.0117906  26.0429280   7.5802599 -14.8617906  26.5289280   8.3912599
 -14.1417906  25.7489280   7.3112599  -8.1187906  36.0369280  10.0682599
  -9.0167906  35.7969280  10.2952599  -8.2097906  36.6289280   9.3212599
  -8.2107906  37.2399280   4.1242599  -7.6637906  36.7989280   4.7752599
  -8.1637906  38.1659280   4.3592599 -14.8007906  34.0489280   9.7232599
 -15.4657906  34.4339280  10.2942599 -15.2437906  33.9319280   8.8832599
  -5.5767906  34.2759280   4.8442599  -4.8207906  34.1929280   4.2632599
  -6.1687906  33.5759280   4.5692599  -6.4297906  33.4639280  -2.8627401
  -6.8317906  33.4149280  -3.7297401  -6.1187906  34.3659280  -2.7927401
 -22.9147906  34.1279280   3.5692599 -23.0277906  33.3319280   4.0882599
 -21.9747906  34.1679280   3.3922599 -14.0797906  33.7219280 -16.6017401
 -13.3597906  33.7919280 -17.2277401 -14.5197906  34.5709280 -16.6467401
 -17.3267906  25.4639280   6.0732599 -17.4357906  24.5569280   6.3612599
 -16.4687906  25.7209280   6.4112599 -12.8937906  11.9899280   2.4382599
 -13.6977906  11.8969280   2.9492599 -12.3037906  11.3259280   2.7942599
 -11.4747906  37.3879280   8.5122599 -12.4247906  37.3819280   8.3942599
 -11.1217906  37.2329280   7.6362599 -14.3287906  21.0929280  -6.6107401
 -14.0547906  21.6469280  -7.3407401 -13.5637906  20.5489280  -6.4217401
 -17.9437906  30.4419280 -14.8927401 -17.3287906  30.7729280 -15.5477401
 -17.4247906  30.3709280 -14.0907401 -21.6287906  32.3039280 -17.1037401
 -21.1087906  31.8079280 -17.7357401 -21.1907906  32.1579280 -16.2657401
 -21.5367906  29.3569280   2.9402599 -21.2867906  28.6889280   2.3022599
 -20.8507906  30.0209280   2.8742599 -15.3997906  34.6379280   0.6712599
 -15.3877906  35.0849280  -0.1747401 -14.5707906  34.8829280   1.0832599
 -11.9677906  10.6269280   8.7432599 -12.8477906  10.4279280   8.4232599
 -12.0917906  10.8459280   9.6662599 -10.6517906  29.5299280   7.7862599
 -11.4587906  30.0249280   7.6422599 -10.3737906  29.7759280   8.6682599
  -1.1667906  34.2939280  -0.1377401  -0.9287906  33.9249280  -0.9877401
  -1.6747906  33.6029280   0.2892599 -20.9027906  34.4789280   7.0522599
 -21.7827906  34.8169280   6.8902599 -21.0027906  33.9029280   7.8102599
   3.6882094  31.8459280 -15.4957401   4.4552094  31.7319280 -16.0567401
   3.3402094  32.7039280 -15.7367401 -10.7057906  36.7729280   2.7662599
  -9.9497906  36.7839280   3.3532599 -10.8987906  37.6969280   2.6062599
 -15.9077906  38.0949280   5.0162599 -15.4077906  37.5609280   5.6332599
 -15.2757906  38.3359280   4.3392599  -6.9337906  10.5399280   2.3132599
  -7.2977906  10.3919280   3.1862599  -6.0297906  10.2319280   2.3752599
 -13.9177906  30.1069280   0.4712599 -14.5817906  30.0269280  -0.2137401
 -13.8267906  29.2209280   0.8222599  -3.4717906  27.8349280   0.9512599
  -3.7837906  27.5479280   0.0932599  -4.2687906  28.0239280   1.4462599
  -5.7107906  24.1609280   6.5212599  -5.0377906  24.8409280   6.4792599
  -6.5187906  24.6349280   6.7162599  -9.7477906   9.9899280   0.6142599
  -8.8477906  10.0399280   0.9372599  -9.8727906   9.0669280   0.3942599
 -14.5597906   9.7029280   8.7572599 -15.2167906   9.8439280   9.4392599
 -14.6237906   8.7689280   8.5532599 -12.6767906  30.4499280   3.7802599
 -12.5167906  30.9349280   2.9702599 -11.8167906  30.3849280   4.1952599
  -4.3257906  16.4639280 -17.7787401  -3.6127906  16.8179280 -17.2477401
  -4.7617906  17.2359280 -18.1407401  -7.6807906  25.6969280   7.0102599
  -7.5717906  26.1279280   7.8582599  -8.2677906  24.9629280   7.1882599
 -15.5337906  34.8469280   6.9092599 -16.4587906  34.7209280   6.6962599
 -15.0927906  34.8619280   6.0602599  -8.3597906  29.3459280 -15.6077401
  -8.4447906  29.2029280 -16.5507401  -7.7897906  28.6379280 -15.3087401
 -15.6727906  35.9829280  -1.7017401 -15.9837906  35.7119280  -2.5657401
 -16.2717906  36.6819280  -1.4397401  -7.0147906  37.1589280 -16.1327401
  -7.1507906  36.2329280 -16.3327401  -7.6827906  37.6159280 -16.6437401
 -13.7267906   9.6119280 -18.2107401 -14.4107906   8.9419280 -18.2347401
 -14.1397906  10.3899280 -18.5837401 -14.7797906  37.6039280  -8.8487401
 -14.2007906  37.2819280  -8.1587401 -15.3017906  38.2849280  -8.4247401
  -9.9797906  25.2969280  -5.5207401 -10.3477906  24.4169280  -5.4487401
 -10.6187906  25.7819280  -6.0437401 -14.3897906  37.0229280   8.4112599
 -14.7157906  36.4389280   7.7262599 -14.7917906  36.6959280   9.2162599
  -9.6907906  23.6709280   6.9732599  -9.8127906  22.7219280   6.9502599
  -9.6097906  23.9239280   6.0532599 -17.3107906   8.6119280   1.5112599
 -17.6607906   9.2389280   2.1442599 -17.4487906   7.7569280   1.9202599
  -8.1417906  16.2319280 -14.0307401  -7.4497906  16.1109280 -14.6807401
  -8.4127906  15.3429280 -13.8017401 -10.5697906  14.7819280 -11.5087401
  -9.7487906  14.3549280 -11.7517401 -11.2357906  14.3379280 -12.0337401
 -12.0387906  14.6469280  10.5802599 -11.6917906  15.3249280  11.1592599
 -12.6587906  15.1079280  10.0142599   2.1482094  23.5529280 -12.9707401
   1.2592094  23.7799280 -13.2447401   2.6792094  24.3059280 -13.2287401
  -3.4357906  15.9819280  -6.5937401  -3.2487906  16.4149280  -7.4267401
  -3.8327906  16.6639280  -6.0517401   0.6242094  16.5359280  -4.7857401
   0.2502094  16.9039280  -5.5867401   0.2582094  15.6529280  -4.7337401
   4.6662094  12.4299280  -8.7327401   4.5242094  12.7299280  -9.6297401
   4.9012094  11.5059280  -8.8217401   1.0292094  16.3469280  -8.2527401
   0.4522094  16.9209280  -8.7557401   1.6902094  16.0599280  -8.8827401
   1.3272094   9.7859280  -8.4437401   0.4112094   9.9049280  -8.1937401
   1.2972094   9.1779280  -9.1817401 -22.7517906  15.1639280  -1.8027401
 -22.0337906  15.7679280  -1.6137401 -23.0947906  15.4569280  -2.6467401
  -3.4247906  20.4599280 -17.6777401  -4.3677906  20.5549280 -17.8127401
  -3.2517906  19.5329280 -17.8447401  -4.1897906  13.3259280  -6.8777401
  -3.6197906  12.9189280  -7.5307401  -3.8157906  14.1969280  -6.7417401
   4.9482094  11.2209280 -15.4367401   5.4032094  10.4539280 -15.7847401
   4.2282094  11.3709280 -16.0487401  -6.9427906  15.4529280 -18.7257401
  -7.6097906  15.2879280 -18.0587401  -6.3557906  16.0929280 -18.3247401
  -3.2787906  25.6759280   7.2602599  -2.5207906  25.3089280   6.8052599
  -3.2747906  25.2479280   8.1162599   2.6382094  15.4059280 -13.8867401
   2.0732094  14.6429280 -14.0077401   2.9512094  15.6149280 -14.7677401
 -22.3497906  31.3269280  -6.1277401 -22.5997906  30.4189280  -6.2977401
 -21.4527906  31.2719280  -5.7987401  -8.0147906  19.6949280   1.1092599
  -8.6917906  20.1679280   0.6252599  -7.4347906  20.3809280   1.4422599
  -4.3467906  32.2399280 -10.1977401  -3.9747906  33.0519280 -10.5397401
  -3.8977906  31.5469280 -10.6817401  -6.1047906  15.4419280 -15.4997401
  -5.6157906  15.9509280 -16.1467401  -6.0277906  14.5359280 -15.7997401
 -17.1967906  12.3519280  -1.4237401 -16.6827906  11.8509280  -0.7917401
 -17.7027906  11.6919280  -1.8987401   2.4842094  14.0529280   0.3532599
   3.3592094  13.7179280   0.1572599   2.1092094  14.2599280  -0.5027401
 -12.3047906  15.5709280   1.5282599 -11.4647906  15.2289280   1.2202599
 -12.1837906  15.6909280   2.4702599 -17.3817906  17.3609280  -6.0397401
 -18.2677906  17.2799280  -5.6877401 -17.4057906  18.1589280  -6.5687401
   6.7202094   9.1359280 -16.0097401   7.3832094   9.1989280 -16.6967401
   6.3302094   8.2699280 -16.1317401  -3.6917906  19.7569280  -5.5497401
  -4.0817906  19.8349280  -6.4207401  -4.0497906  20.4959280  -5.0587401
   0.6382094  25.0499280  -1.4657401   0.1972094  25.6819280  -2.0337401
   0.0302094  24.9159280  -0.7387401 -21.5697906  33.8179280  -8.2967401
 -20.9287906  33.2349280  -8.7037401 -22.3717906  33.2979280  -8.2487401
 -22.2537906  11.8729280 -17.2797401 -21.9087906  12.3779280 -18.0157401
 -23.1927906  11.8059280 -17.4537401   2.6402094  31.4369280 -13.0387401
   3.3512094  31.0279280 -12.5447401   3.0132094  31.6009280 -13.9047401
  -2.9837906  20.5979280 -14.5457401  -2.5247906  20.7579280 -13.7217401
  -3.2577906  21.4659280 -14.8407401   2.7482094  19.5679280  -3.9107401
   2.3062094  19.0329280  -3.2517401   2.0462094  20.0779280  -4.3157401
 -21.1167906  22.9989280 -13.7317401 -21.7387906  22.9489280 -14.4587401
 -21.0507906  22.0999280 -13.4107401  -1.1867906  27.9229280 -18.1827401
  -0.4087906  27.5189280 -17.7997401  -1.4267906  28.6149280 -17.5667401
   6.4052094  32.2019280 -13.5477401   6.5532094  32.7549280 -14.3147401
   6.6182094  31.3169280 -13.8447401  -1.5457906   9.1919280 -10.8027401
  -1.4127906   9.5359280  -9.9197401  -2.2207906   8.5209280 -10.6987401
   0.5502094  13.4809280  -7.5707401   0.9522094  14.3169280  -7.8087401
   1.2912094  12.9009280  -7.3927401  -0.2807906  32.3489280  -3.1167401
   0.5072094  32.2619280  -2.5807401   0.0462094  32.5029280  -4.0027401
 -22.6387906  20.2689280  -7.7797401 -22.3717906  20.0409280  -6.8897401
 -21.9127906  20.7889280  -8.1227401   2.9242094  27.5819280 -11.2057401
   2.0372094  27.5639280 -10.8467401   3.3742094  26.8599280 -10.7687401
  -6.1587906  18.0049280 -12.2857401  -6.5267906  17.5379280 -13.0367401
  -5.2547906  17.6969280 -12.2307401  -4.4697906  34.1829280 -13.3427401
  -3.9467906  33.4359280 -13.6347401  -5.2157906  34.2019280 -13.9417401
 -18.0197906  34.2489280 -14.1377401 -18.4597906  35.0729280 -13.9257401
 -18.7327906  33.6309280 -14.2977401   0.4292094  31.6019280  -8.8937401
   0.1582094  32.1609280  -9.6227401  -0.2617906  30.9429280  -8.8287401
   2.9252094  34.9499280  -3.3857401   2.7272094  34.0549280  -3.6597401
   2.0732094  35.3289280  -3.1697401 -22.7817906  14.7709280 -12.0967401
 -23.3597906  14.3299280 -12.7207401 -22.1037906  15.1729280 -12.6407401
 -17.4017906  10.0749280  -5.2847401 -16.4597906   9.9819280  -5.4317401
 -17.6927906  10.6809280  -5.9657401  -1.8337906  19.7869280   8.7182599
  -1.3277906  19.1749280   9.2522599  -1.3407906  19.8559280   7.9002599
 -10.7717906  12.2249280 -19.0767401 -11.3637906  12.9479280 -19.2837401
 -10.0967906  12.2659280 -19.7547401 -14.2627906  12.8349280   0.0422599
 -13.6557906  12.5319280   0.7182599 -14.9977906  12.2229280   0.0892599
  -1.5787906  10.1659280  -8.3357401  -1.7557906  10.1839280  -7.3957401
  -1.7147906  11.0689280  -8.6227401  -0.6957906  14.6599280  -2.9247401
  -1.2367906  15.2539280  -2.4047401  -1.1317906  14.6199280  -3.7757401
  -5.7667906  18.2129280  10.7092599  -5.8797906  19.1499280  10.8642599
  -5.4527906  18.1549280   9.8062599   5.1822094   9.9799280 -10.0897401
   4.8562094   9.2099280  -9.6247401   4.7732094   9.9299280 -10.9537401
 -18.6277906  27.6969280  -3.8237401 -19.5377906  27.8949280  -4.0447401
 -18.5757906  27.8289280  -2.8777401  -1.2407906  24.5239280   0.0752599
  -1.5537906  24.9909280   0.8492599  -0.7847906  23.7579280   0.4242599
   1.7762094  21.2399280  -1.3267401   2.5182094  20.7279280  -1.6497401
   2.1762094  21.9549280  -0.8307401 -20.1167906  12.5259280   2.4852599
 -20.5067906  12.0229280   1.7702599 -19.8127906  13.3339280   2.0702599
   0.1592094  38.2069280 -12.7057401  -0.4947906  38.5439280 -12.0937401
   0.8312094  37.8149280 -12.1467401   7.2192094  17.7919280 -12.0387401
   6.2832094  17.6899280 -11.8667401   7.3592094  17.3469280 -12.8737401
 -10.6727906  15.8919280  -7.1637401  -9.7327906  15.8669280  -7.3427401
 -10.8457906  15.0859280  -6.6777401  -0.5557906  20.7979280  -7.9027401
  -1.0607906  21.5899280  -8.0867401  -0.6047906  20.2889280  -8.7117401
 -20.1757906  17.3629280 -10.7517401 -19.7527906  17.5649280  -9.9167401
 -21.0417906  17.7639280 -10.6847401 -20.8457906  16.6879280  -0.9587401
 -19.9947906  17.0919280  -0.7907401 -21.4037906  16.9979280  -0.2457401
   4.6912094  14.3939280  -6.7097401   4.8222094  13.5689280  -7.1777401
   4.6202094  15.0529280  -7.4007401 -16.7467906  11.9409280 -16.0507401
 -17.0997906  12.8049280 -15.8367401 -17.4367906  11.5219280 -16.5657401
  -2.6497906  11.6849280 -12.2117401  -2.0237906  11.1189280 -11.7587401
  -3.3837906  11.7659280 -11.6037401  -5.9647906  38.0979280  -8.7657401
  -6.4917906  37.5119280  -8.2227401  -6.5337906  38.3209280  -9.5017401
 -16.9257906  18.7169280 -14.0217401 -17.1767906  19.2729280 -13.2837401
 -16.9397906  19.3019280 -14.7787401  -0.7617906  36.2839280   1.9922599
  -0.5207906  35.7489280   1.2362599  -0.4047906  37.1509280   1.7962599
   3.1922094  36.8869280   1.1912599   2.5752094  36.3049280   0.7462599
   2.8662094  37.7679280   1.0062599  -6.8607906  24.3809280 -18.7107401
  -7.7427906  24.0429280 -18.5577401  -6.4217906  23.6889280 -19.2057401
  -0.6477906  16.2039280 -10.7507401   0.2662094  15.9199280 -10.7827401
  -0.6847906  16.9599280 -11.3367401   1.5742094  19.3339280 -12.1477401
   1.8822094  19.7809280 -11.3597401   2.2862094  19.4419280 -12.7787401
  -2.3457906  36.0339280  -2.8837401  -2.7977906  36.8439280  -2.6457401
  -2.8997906  35.3369280  -2.5337401  -5.6327906  32.9219280  -7.7917401
  -5.6787906  32.5279280  -8.6627401  -4.9357906  33.5749280  -7.8597401
   4.2982094  16.3589280  -8.6267401   3.8572094  17.0959280  -8.2037401
   4.4732094  16.6639280  -9.5177401   1.6182094  16.6689280 -19.2197401
   2.1872094  17.2689280 -19.7017401   2.1372094  16.4049280 -18.4597401
  -2.3667906  14.1609280 -13.4347401  -2.1227906  13.3749280 -12.9467401
  -1.5317906  14.5359280 -13.7177401 -18.7137906  25.6699280   1.5182599
 -19.2547906  26.0659280   0.8352599 -18.0277906  26.3169280   1.6862599
   0.2282094  34.1349280 -11.6377401  -0.5957906  34.5509280 -11.8907401
   0.2462094  33.3159280 -12.1327401  -7.7417906  11.5459280  -7.4127401
  -6.8817906  11.1379280  -7.5157401  -8.2357906  10.9319280  -6.8687401
 -21.5577906  15.2469280  -5.2227401 -22.4457906  15.1739280  -4.8757401
 -21.2647906  16.1169280  -4.9527401 -21.6087906  26.7679280 -11.2267401
 -21.0257906  26.8959280 -10.4777401 -22.3987906  26.3779280 -10.8527401
 -11.9617906  26.4789280   1.1782599 -11.2957906  26.3129280   0.5112599
 -12.1197906  25.6239280   1.5782599   2.5162094  21.9389280  -7.8047401
   2.2202094  22.6669280  -7.2587401   3.3062094  21.6189280  -7.3687401
   4.2992094  36.2919280  -5.0857401   3.8172094  35.7849280  -4.4327401
   5.1972094  36.3169280  -4.7557401   1.9752094  10.5509280 -13.4867401
   1.3712094   9.8079280 -13.4737401   2.8452094  10.1519280 -13.4817401
  -3.3947906  23.6039280  -3.2927401  -2.5797906  23.1089280  -3.3797401
  -3.1127906  24.4899280  -3.0647401   4.9532094  22.0349280 -15.5387401
   4.9262094  22.2779280 -14.6137401   5.0882094  22.8629280 -16.0007401
 -17.6437906  22.9549280  -3.0077401 -16.9717906  22.8729280  -2.3317401
 -18.3927906  23.3439280  -2.5567401   0.0342094  22.8199280   9.9002599
   0.2602094  23.7299280  10.0952599  -0.4727906  22.8679280   9.0902599
   1.6922094  12.2219280 -11.0487401   1.8532094  11.5619280 -11.7227401
   2.5562094  12.3989280 -10.6747401   5.0792094  24.3959280 -17.5717401
   4.2502094  23.9309280 -17.6907401   5.4572094  24.4399280 -18.4497401
  -1.3917906  14.3949280  -5.6597401  -2.0677906  14.8899280  -6.1227401
  -0.7737906  14.1359280  -6.3437401 -18.4067906  19.3059280 -18.3377401
 -19.1127906  19.8789280 -18.0387401 -17.6887906  19.4699280 -17.7257401
  -4.8637906  25.6109280  -8.0897401  -4.9067906  24.6749280  -8.2867401
  -3.9947906  25.7339280  -7.7057401   2.6682094  20.3999280  -9.9797401
   2.3072094  20.9479280  -9.2827401   3.4672094  20.0299280  -9.6047401
   4.4252094  13.4059280 -11.3247401   4.5782094  14.3269280 -11.1117401
   4.7482094  13.3109280 -12.2207401   1.3262094  17.4069280   4.9902599
   0.6502094  16.8659280   4.5832599   2.1082094  16.8549280   4.9902599
  -6.0267906  26.8569280 -17.7047401  -6.0907906  25.9659280 -18.0487401
  -5.3997906  27.2919280 -18.2817401   0.0362094  22.0079280   0.5742599
   0.7482094  21.7069280   0.0092599  -0.7057906  21.4489280   0.3432599
   0.4462094   8.9049280  -5.1607401   0.8912094   8.1979280  -5.6277401
   1.1362094   9.5409280  -4.9737401 -14.2987906  27.3609280 -14.6917401
 -14.3677906  26.4309280 -14.4757401 -14.9387906  27.4929280 -15.3907401
 -21.8977906  20.6339280 -15.8727401 -22.0457906  21.2959280 -16.5477401
 -22.5677906  19.9699280 -16.0367401  -6.5507906  14.0989280  -7.5807401
  -5.6567906  13.7889280  -7.4407401  -7.0857906  13.3059280  -7.5597401
   3.2242094  18.2059280  -6.9647401   3.5402094  17.5379280  -6.3557401
   2.2872094  18.2739280  -6.7807401   0.2082094  16.8699280 -15.8807401
   0.4022094  17.8059280 -15.9357401   0.6252094  16.5859280 -15.0667401
  -4.4157906  10.2029280 -14.8787401  -4.6407906   9.4679280 -14.3087401
  -3.4597906  10.2429280 -14.8517401  -2.9027906  16.8029280  -9.3197401
  -2.9027906  17.6869280  -9.6867401  -2.1987906  16.3509280  -9.7827401
  -0.1207906  19.8059280   6.7662599  -0.0487906  18.9919280   6.2672599
   0.7712094  19.9839280   7.0652599  -0.4697906  26.2589280  -5.6577401
  -0.3337906  26.9929280  -5.0597401  -1.3167906  26.4359280  -6.0677401
  -4.2587906  27.3619280   5.2962599  -4.0187906  26.7359280   5.9802599
  -3.4597906  27.8639280   5.1392599 -21.8337906  20.2199280 -12.9197401
 -22.0067906  20.0049280 -13.8367401 -21.9747906  19.3979280 -12.4497401
  -4.2677906  14.6709280 -10.4397401  -4.1257906  14.7409280 -11.3837401
  -3.9537906  15.5029280 -10.0867401  -5.2297906  10.5529280  -7.6867401
  -5.2767906  10.3609280  -6.7497401  -5.3707906   9.7079280  -8.1117401
   0.2752094  14.4809280 -17.0997401   0.3052094  15.3989280 -16.8307401
  -0.2357906  14.4839280 -17.9087401  -3.3827906  37.4539280 -18.5167401
  -2.4257906  37.4459280 -18.5227401  -3.6227906  36.9339280 -17.7497401
   7.1872094  11.7479280 -10.6507401   6.4752094  11.1229280 -10.5137401
   6.8112094  12.5959280 -10.4167401 -14.8897906   9.3649280 -12.3247401
 -14.4267906   9.8399280 -11.6347401 -15.2007906  10.0479280 -12.9187401
   3.2502094  14.6379280 -16.5127401   3.9632094  14.9119280 -17.0897401
   2.6632094  14.1369280 -17.0787401   2.5992094  29.2509280 -17.8537401
   2.6872094  29.4359280 -18.7887401   3.4112094  28.8009280 -17.6207401
  -9.1067906   9.2439280   9.4082599 -10.0037906   9.1109280   9.7132599
  -8.5677906   9.1279280  10.1912599  -1.8707906  12.8199280  -1.6307401
  -2.2307906  12.3419280  -2.3777401  -1.2887906  13.4719280  -2.0217401
  -3.2607906  21.8909280   9.9342599  -3.1917906  21.3689280  10.7342599
  -2.8737906  21.3399280   9.2542599   6.5922094  18.2129280 -18.1697401
   6.9702094  18.0529280 -19.0337401   6.0752094  17.4279280 -17.9847401
 -20.2097906  24.8209280   8.2192599 -20.4437906  24.4779280   7.3572599
 -19.2777906  24.6209280   8.3122599  -1.3927906  21.6429280   4.8682599
  -1.1917906  20.7769280   5.2242599  -1.5337906  21.4919280   3.9342599
 -21.8367906  22.3589280   7.4102599 -21.5347906  22.4459280   8.3142599
 -21.0687906  22.0509280   6.9292599  -1.0487906  21.7969280 -17.0017401
  -1.0387906  22.1429280 -17.8937401  -1.8567906  21.2859280 -16.9517401
 -22.1297906  12.9169280   7.1942599 -21.9907906  12.7709280   6.2592599
 -21.9357906  13.8449280   7.3242599   5.2182094  34.2059280 -19.1847401
   4.8392094  34.8199280 -19.8147401   5.9782094  34.6669280 -18.8297401
 -19.8957906  18.6919280   3.5342599 -20.4867906  19.2599280   3.0392599
 -19.3127906  19.2959280   3.9942599   5.9472094  36.6199280 -16.3377401
   6.0632094  35.7209280 -16.0297401   6.6652094  36.7579280 -16.9547401
 -20.1637906  15.5079280   3.9442599 -19.8967906  16.3199280   3.5122599
 -20.7087906  15.0599280   3.2962599  -0.3797906  32.9069280 -18.5667401
  -1.1557906  32.8349280 -18.0107401  -0.3067906  32.0509280 -18.9887401
 -19.5777906  27.1339280   5.4052599 -20.2027906  26.4099280   5.4292599
 -18.7297906  26.7269280   5.5822599 -17.6297906  23.6809280   9.3452599
 -17.5627906  23.0819280   8.6022599 -16.7217906  23.8529280   9.5962599
  -3.2557906  27.6949280 -14.5937401  -2.9847906  26.9369280 -15.1107401
  -3.2407906  28.4249280 -15.2127401   4.1272094  19.0069280 -13.8377401
   4.4842094  19.8719280 -13.6397401   4.7302094  18.6409280 -14.4857401
  -0.6257906  15.7849280   3.8482599  -0.1797906  15.6659280   3.0102599
  -0.8277906  14.8959280   4.1412599   0.2422094  35.2579280  -3.4297401
  -0.6947906  35.2559280  -3.2357401   0.3652094  34.5179280  -4.0247401
 -21.0987906  13.1839280 -15.1587401 -21.4197906  12.7669280 -15.9587401
 -21.7267906  12.9249280 -14.4847401   3.8992094  37.3299280 -18.1617401
   4.7192094  36.9789280 -17.8147401   3.5192094  37.8189280 -17.4317401
   1.4432094  31.9789280  -1.0177401   1.4632094  31.1929280  -0.4707401
   2.3362094  32.0599280  -1.3537401   4.5962094  36.4799280   8.9722599
   4.0532094  37.0109280   9.5562599   5.2562094  37.0889280   8.6402599
 -16.6507906  29.9669280   5.9932599 -16.1897906  30.7449280   5.6802599
 -16.0117906  29.2589280   5.9072599   1.3632094  26.9449280 -17.6197401
   1.7212094  27.8099280 -17.8207401   2.0152094  26.5429280 -17.0447401
   2.4322094  23.5719280  -0.1467401   1.8682094  23.7759280   0.6002599
   2.2152094  24.2369280  -0.7997401   5.0762094  11.3749280 -18.5967401
   4.3262094  10.8019280 -18.4357401   4.7582094  12.2519280 -18.3857401
  -5.2237906  14.3809280   2.4792599  -4.8857906  13.4869280   2.5292599
  -4.5727906  14.8559280   1.9622599  -2.7447906  15.0379280   1.2912599
  -2.4017906  14.1759280   1.0562599  -1.9657906  15.5729280   1.4432599
  -4.9327906  16.0609280   4.7362599  -5.0547906  15.1119280   4.7062599
  -5.7967906  16.4069280   4.9622599  -1.2487906  24.1189280   6.0342599
  -0.5707906  23.9389280   6.6852599  -1.4257906  23.2689280   5.6302599
   1.1882094  13.1429280 -14.3147401   1.0722094  12.9589280 -15.2467401
   1.4352094  12.3009280 -13.9327401 -20.2957906  12.2269280   9.6082599
 -20.4727906  13.1659280   9.6512599 -20.8077906  11.9189280   8.8602599
 -12.9227906  20.2419280  -2.2067401 -12.6117906  19.6599280  -1.5137401
 -12.6897906  19.7919280  -3.0197401 -20.5587906  24.3979280   5.3262599
 -21.3197906  23.9049280   5.0212599 -19.8057906  23.8879280   5.0272599
  -2.8097906  17.6399280   4.0232599  -2.0117906  17.1119280   4.0702599
  -3.5087906  17.0409280   4.2872599   0.7932094  21.1569280  -5.1927401
   0.4942094  21.0639280  -6.0967401   1.0532094  22.0749280  -5.1187401
  -0.8857906  26.8949280   8.0382599  -1.1267906  27.6539280   8.5692599
  -1.6067906  26.2769280   8.1602599   0.2842094  15.5299280   1.3462599
   0.7592094  16.2259280   0.8922599   0.7702094  14.7319280   1.1362599
 -22.6917906  15.6099280   5.6502599 -21.8117906  15.7439280   5.2962599
 -23.1347906  16.4479280   5.5152599  -1.5297906  12.6489280  -9.1487401
  -0.6417906  12.8669280  -8.8657401  -1.8557906  13.4529280  -9.5547401
 -17.5347906  19.9919280 -11.8377401 -17.9677906  19.3589280 -11.2637401
 -17.2377906  20.6849280 -11.2487401 -16.7607906  14.4749280  -6.3957401
 -16.0507906  14.3619280  -7.0277401 -16.8327906  15.4219280  -6.2817401
   4.1562094  34.5589280   2.7892599   5.0782094  34.6499280   3.0332599
   3.9932094  35.2879280   2.1912599 -22.3037906  18.2019280  -5.4877401
 -22.9857906  18.2169280  -4.8157401 -22.5877906  17.5249280  -6.1027401
  -0.8057906  22.3829280  -3.2677401  -0.1647906  21.8149280  -3.6957401
  -0.3227906  22.7869280  -2.5467401  -1.4617906  32.0199280   7.7692599
  -0.7607906  32.5739280   7.4252599  -1.9927906  32.6089280   8.3042599
 -19.6757906  24.3449280  -1.9437401 -19.5247906  25.1719280  -1.4867401
 -20.4887906  24.4839280  -2.4297401 -22.9387906  17.6639280   8.0642599
 -22.3727906  17.9329280   7.3402599 -22.3597906  17.1849280   8.6572599
  -9.0707906  14.8889280  -3.7467401  -8.5677906  15.2839280  -4.4587401
  -9.3847906  15.6339280  -3.2337401 -18.8987906  22.7519280   0.7102599
 -19.4887906  23.4819280   0.8952599 -18.9427906  22.6429280  -0.2397401
  -3.4597906  17.5309280   0.5792599  -3.8427906  18.3339280   0.9322599
  -3.7007906  16.8519280   1.2102599  -5.5967906  10.6779280  -5.1227401
  -5.3557906  10.1199280  -4.3827401  -5.8167906  11.5209280  -4.7257401
 -17.3517906  22.7529280   6.7512599 -17.9617906  22.1179280   6.3742599
 -16.5447906  22.2579280   6.8882599 -16.6367906  12.0819280   4.4752599
 -15.7807906  11.8699280   4.8482599 -17.1857906  12.2809280   5.2332599
 -22.1617906  22.5599280   4.1392599 -23.1007906  22.3839280   4.1952599
 -21.8317906  21.9069280   3.5222599 -20.7587906  20.9409280   2.2862599
 -20.0347906  21.4849280   1.9772599 -21.4937906  21.1749280   1.7202599
   4.6612094  16.7319280 -12.0087401   4.2662094  17.4919280 -12.4367401
   4.6402094  16.0449280 -12.6747401 -18.1737906  16.6419280 -19.0247401
 -18.2627906  17.5779280 -18.8457401 -17.2327906  16.4759280 -18.9697401
 -19.2337906  13.7299280  -4.6627401 -18.5257906  14.1829280  -5.1217401
 -19.9657906  14.3469280  -4.6817401  -8.4447906  17.0309280   1.1052599
  -8.3857906  17.9829280   1.1822599  -8.4147906  16.8639280   0.1632599
 -20.3787906  37.8839280   1.9362599 -21.0457906  37.1989280   1.9182599
 -20.6687906  38.5189280   1.2812599  -3.1727906  25.4989280   2.2802599
  -2.5377906  25.6939280   2.9692599  -3.4057906  26.3539280   1.9182599
 -21.1027906  12.9949280  -2.0237401 -21.5447906  12.5489280  -2.7467401
 -21.7317906  13.6529280  -1.7277401 -19.0267906  11.5749280 -13.8447401
 -18.0727906  11.6519280 -13.8117401 -19.3097906  12.3199280 -14.3747401
  -0.5027906  18.7919280   2.3782599  -1.0917906  19.5419280   2.2882599
  -1.0497906  18.1019280   2.7552599  -4.2967906  34.1369280 -18.6687401
  -4.1997906  35.0389280 -18.3627401  -3.6157906  34.0359280 -19.3347401
   1.5072094  23.7539280  -5.9527401   0.9252094  24.4829280  -6.1657401
   2.0692094  24.0919280  -5.2547401  -0.2657906  24.0129280 -15.0977401
  -0.9237906  24.5239280 -15.5697401  -0.3227906  23.1369280 -15.4787401
  -3.2587906   8.4949280  -2.1487401  -2.9607906   8.7849280  -3.0107401
  -4.1327906   8.8729280  -2.0567401   1.7652094  34.6199280   0.3822599
   2.4992094  34.1699280  -0.0367401   0.9892094  34.2789280  -0.0637401
  -0.8417906  38.1669280 -15.0957401  -1.3207906  38.9889280 -14.9997401
  -0.5197906  37.9719280 -14.2157401  -3.0347906  32.4339280  -5.8257401
  -2.5347906  32.5769280  -6.6297401  -2.4327906  31.9629280  -5.2497401
  -6.5757906  11.0289280 -12.3497401  -6.3147906  10.1529280 -12.6327401
  -5.7557906  11.4559280 -12.1037401  -4.9577906  12.0849280 -10.5627401
  -4.7907906  13.0149280 -10.4067401  -5.1177906  11.7199280  -9.6927401
  -2.4837906  32.5439280 -16.5617401  -3.2077906  33.0329280 -16.9507401
  -2.5627906  32.7059280 -15.6217401   4.3362094  29.8509280 -11.2597401
   4.2042094  30.4349280 -10.5127401   3.5532094  29.3009280 -11.2767401
  -1.6987906  10.5469280 -14.6467401  -1.7017906  11.0959280 -13.8617401
  -1.2517906  11.0759280 -15.3077401  -0.8047906  18.5759280  -3.1657401
  -0.8297906  18.7549280  -4.1067401   0.0752094  18.2309280  -3.0107401
  -6.2037906  26.5269280  -6.0307401  -6.0837906  25.9369280  -6.7747401
  -5.3657906  26.9799280  -5.9467401   5.0512094  25.8679280 -10.0247401
   4.9342094  25.7339280  -9.0847401   5.4952094  26.7139280 -10.0927401
 -21.7797906  34.0399280  -5.4147401 -22.6037906  33.6759280  -5.0927401
 -21.5817906  33.5279280  -6.1987401 -20.8787906  38.1239280  -0.7437401
 -20.5657906  37.2199280  -0.7307401 -21.3017906  38.2189280  -1.5977401
 -21.6567906  26.8969280   0.6542599 -22.5417906  27.2169280   0.4802599
 -21.7777906  25.9819280   0.9092599 -20.7327906  36.7699280 -15.8777401
 -21.1647906  37.2109280 -16.6087401 -20.3457906  37.4799280 -15.3647401
  -5.3537906  28.0509280 -12.4527401  -6.2417906  27.7059280 -12.3587401
  -5.0917906  27.7999280 -13.3387401   2.6892094  33.7909280   9.4002599
   3.5372094  33.3519280   9.3242599   2.2312094  33.5689280   8.5892599
  -2.8807906  31.9829280 -13.9337401  -3.3537906  31.1509280 -13.9167401
  -1.9667906  31.7419280 -13.7827401   0.2312094  30.0619280  -5.8947401
  -0.2437906  30.0459280  -6.7257401   1.1392094  29.8759280  -6.1337401
  -1.2867906  35.4599280 -15.4517401  -0.9797906  35.1389280 -16.2997401
  -1.0117906  36.3769280 -15.4287401  -0.2467906  31.6189280 -13.1367401
  -0.2987906  30.8349280 -12.5897401   0.6712094  31.6659280 -13.4037401
 -20.0767906  31.6779280   2.3182599 -19.9237906  32.0469280   1.4492599
 -20.2657906  32.4359280   2.8712599   2.4162094  11.6829280  -6.9757401
   2.0432094  11.0759280  -7.6147401   3.2722094  11.9149280  -7.3357401
 -19.7597906  35.2039280  -3.8137401 -20.4007906  34.7299280  -4.3427401
 -19.6967906  36.0649280  -4.2267401   1.2992094  30.2619280 -15.6507401
   1.9442094  30.8849280 -15.3167401   1.6242094  30.0209280 -16.5177401
   2.5102094  24.9559280 -15.6557401   2.6172094  24.2999280 -16.3447401
   1.6762094  24.7339280 -15.2407401 -21.6047906  32.8149280   9.5902599
 -22.0607906  32.0249280   9.8792599 -20.6937906  32.5409280   9.4822599
   2.8602094  29.3259280   3.8642599   3.1252094  30.1289280   3.4162599
   2.2152094  28.9269280   3.2812599  -1.3157906  26.1129280 -10.3947401
  -2.1257906  26.4009280  -9.9737401  -1.6057906  25.6059280 -11.1527401
  -1.5037906  29.7339280  -8.4787401  -2.4407906  29.8169280  -8.3017401
  -1.4567906  29.3579280  -9.3577401  -2.8717906  34.3989280   8.9942599
  -3.7577906  34.7549280   8.9312599  -2.4307906  34.7109280   8.2042599
  -0.0447906  27.7479280  -2.0067401  -0.5117906  28.4989280  -2.3747401
   0.6132094  28.1349280  -1.4287401  -3.0997906  29.9759280 -11.7947401
  -3.6947906  29.3079280 -12.1357401  -2.3017906  29.4959280 -11.5757401
   0.8912094  26.1839280  -8.8727401   1.3402094  25.3699280  -9.0997401
   0.1402094  26.2159280  -9.4657401   4.6582094  34.2719280 -12.8787401
   4.9452094  33.3689280 -12.7487401   4.5832094  34.3659280 -13.8287401
   4.3412094  33.6589280  -0.5247401   4.4182094  33.0269280  -1.2387401
   5.1302094  34.1959280  -0.5927401  -5.7877906  31.1459280  -1.7167401
  -5.9317906  30.4509280  -2.3597401  -6.0367906  31.9499280  -2.1717401
   2.7032094  10.5769280 -17.1117401   1.8842094  11.0699280 -17.1567401
   2.4662094   9.7549280 -16.6827401   5.0252094  24.9139280 -14.4247401
   4.3522094  24.8809280 -15.1047401   5.4142094  25.7849280 -14.5137401
  -4.6507906  19.8839280  -1.2547401  -4.6997906  20.1249280  -0.3297401
  -3.7847906  20.1809280  -1.5337401 -11.0177906  12.6169280  -3.9197401
 -11.7547906  12.8229280  -3.3437401 -10.3157906  13.1979280  -3.6277401
   1.8152094  38.1489280 -16.1207401   0.8682094  38.0359280 -16.0447401
   2.1692094  37.7399280 -15.3307401   1.3422094  36.9049280 -10.7147401
   2.1742094  36.4319280 -10.6997401   0.7112094  36.2919280 -10.3377401
   4.8172094  36.7789280 -11.7997401   4.7542094  35.8269280 -11.8807401
   4.7422094  36.9439280 -10.8597401   3.9052094  31.6729280  -2.2687401
   4.2342094  31.9659280  -3.1187401   3.6282094  30.7689280  -2.4167401
   5.8302094  31.8529280 -17.2537401   6.7342094  32.1579280 -17.1857401
   5.4172094  32.4599280 -17.8677401  -4.7107906  37.7699280  -5.5367401
  -3.9877906  38.3929280  -5.4687401  -4.2917906  36.9389280  -5.7587401
 -21.9297906  24.3289280   1.6102599 -21.7927906  24.0829280   2.5252599
 -22.7697906  23.9319280   1.3782599   6.8992094  35.4709280  -1.2337401
   6.7382094  35.9349280  -2.0557401   6.4512094  35.9949280  -0.5707401
 -15.6787906  32.0659280  -1.8687401 -15.8527906  32.8779280  -2.3427401
 -15.3297906  31.4699280  -2.5317401 -17.9997906  29.0409280   0.9482599
 -17.9137906  29.9689280   1.1662599 -17.9257906  28.5889280   1.7882599
   2.4902094  34.4459280  -7.6127401   2.2392094  34.0329280  -8.4387401
   1.8642094  35.1619280  -7.5027401  -7.3517906  31.8979280 -16.3497401
  -6.8687906  31.7159280 -17.1557401  -7.4467906  31.0429280 -15.9297401
  -9.3017906  36.3549280  -4.0227401  -8.3657906  36.2859280  -3.8357401
  -9.5487906  35.4859280  -4.3387401   2.3542094  33.5949280 -17.5747401
   1.4432094  33.3039280 -17.5587401   2.5752094  33.6409280 -18.5047401
  -1.6587906  35.6019280 -12.8377401  -1.3937906  35.3749280 -13.7287401
  -1.2767906  36.4659280 -12.6857401  -5.7587906  35.2969280   8.8192599
  -6.4197906  35.5449280   9.4652599  -6.2607906  34.9299280   8.0912599
  -6.7657906  12.9999280  -3.6147401  -6.7317906  12.9459280  -2.6597401
  -7.3597906  13.7299280  -3.7917401   5.8792094  27.6369280 -15.5237401
   6.7472094  27.2589280 -15.6687401   5.3492094  27.3039280 -16.2477401
   4.5072094  27.3259280 -17.8437401   5.0002094  27.6109280 -18.6137401
   4.5342094  26.3699280 -17.8817401 -22.6417906  34.3079280 -15.7437401
 -22.2097906  33.7659280 -16.4047401 -21.9687906  34.9289280 -15.4657401
  -0.9057906  28.7009280 -11.0997401  -1.0207906  27.7569280 -10.9967401
  -0.4007906  28.7949280 -11.9067401  -1.9917906  34.2179280  -7.8397401
  -2.2087906  34.3809280  -8.7577401  -2.0167906  35.0819280  -7.4297401
   4.5442094   9.6159280 -13.1187401   4.8182094  10.0989280 -13.8987401
   5.2012094   8.9269280 -13.0197401  -4.3197906  29.3289280  -8.0457401
  -4.5227906  28.6989280  -8.7367401  -4.9417906  30.0429280  -8.1807401
   4.7802094  37.3589280  -8.9477401   4.6392094  37.8069280  -8.1137401
   5.6892094  37.0629280  -8.9117401 -12.9147906  36.7599280  -1.8177401
 -12.2647906  36.0589280  -1.8647401 -13.7517906  36.3229280  -1.9757401
 -22.1897906  33.5209280   0.4402599 -21.2617906  33.3039280   0.5272599
 -22.2217906  34.1519280  -0.2777401 -10.5427906  24.8609280   9.3902599
  -9.8617906  25.5329280   9.4202599 -10.3587906  24.3679280   8.5902599
   6.6922094  18.0449280 -15.4467401   6.4242094  17.8769280 -16.3497401
   7.5262094  17.5849280 -15.3537401   2.1272094  36.9879280  -6.4917401
   2.8552094  36.5019280  -6.1047401   2.5372094  37.7479280  -6.9037401
   3.4482094  29.0119280  -2.8527401   3.1472094  28.1719280  -3.1987401
   4.3392094  28.8399280  -2.5477401 -21.8917906  38.3949280  -9.4377401
 -21.3937906  37.8339280 -10.0337401 -22.7347906  38.5189280  -9.8737401
 -22.6837906   8.7149280 -13.2417401 -22.6787906   8.6429280 -14.1967401
 -22.1387906   7.9869280 -12.9437401  -2.7067906  34.7499280 -10.4287401
  -2.4297906  34.8049280 -11.3427401  -2.9337906  35.6489280 -10.1917401
   0.8252094  37.6199280   7.9882599   1.0502094  37.0919280   8.7542599
   0.9022094  38.5249280   8.2902599  -5.0097906   9.9339280 -17.3707401
  -4.9947906   9.7439280 -16.4327401  -4.8167906   9.0939280 -17.7887401
  -1.5277906  29.8769280 -16.1827401  -0.6217906  30.0379280 -15.9197401
  -1.8837906  30.7469280 -16.3597401   2.0212094  26.5709280  -3.8557401
   2.3052094  25.7109280  -3.5477401   1.4502094  26.8979280  -3.1607401
   3.1272094  31.5129280  -9.2117401   2.2282094  31.3349280  -8.9367401
   3.0652094  32.3149280  -9.7307401 -14.9667906  13.0899280   9.4452599
 -14.5917906  13.1749280  10.3212599 -15.4497906  12.2639280   9.4692599
 -22.2617906  31.4689280 -10.9997401 -22.6267906  31.8739280 -11.7857401
 -22.9557906  31.5469280 -10.3447401  -3.7187906  33.6919280  -1.7547401
  -3.9677906  33.9569280  -0.8697401  -4.2937906  32.9529280  -1.9547401
   1.8762094  34.9319280   4.6032599   2.6482094  34.8439280   4.0442599
   1.2082094  34.3939280   4.1772599  -3.0237906  35.7489280   3.9072599
  -2.2737906  35.5789280   3.3372599  -3.2097906  36.6809280   3.7862599
   3.2662094  37.0919280 -14.0587401   3.7052094  37.3819280 -13.2587401
   3.7182094  36.2829280 -14.2997401  -0.8137906  35.9829280 -18.3677401
   0.1112094  36.0479280 -18.6047401  -1.0847906  35.1249280 -18.6947401
  -5.1997906  29.1809280 -16.1617401  -5.3977906  28.3299280 -16.5537401
  -5.0397906  29.7569280 -16.9087401  -3.6287906  30.8279280  -0.0127401
  -3.9367906  30.4879280   0.8272599  -4.4167906  30.8829280  -0.5527401
  -0.3597906  31.2679280   5.0012599   0.4772094  31.7329280   5.0212599
  -0.8917906  31.7579280   4.3742599   6.5202094  28.5429280  -9.7747401
   7.3262094  28.9439280 -10.1007401   5.9002094  28.6309280 -10.4987401
  -8.1987906  32.7459280   9.4822599  -9.0567906  33.1689280   9.5032599
  -7.7237906  33.1999280   8.7862599 -21.3287906  28.9489280   6.7352599
 -20.8217906  28.3199280   6.2212599 -21.9347906  29.3399280   6.1052599
   6.2872094  34.8679280   6.6002599   5.7112094  34.9219280   7.3622599
   5.7792094  34.3829280   5.9492599   4.6162094  33.0649280   5.1782599
   3.8012094  32.9769280   4.6852599   4.5552094  32.3989280   5.8632599
 -19.9697906  34.1479280   3.7632599 -19.0437906  33.9329280   3.6482599
 -19.9647906  35.0039280   4.1922599   1.0642094  30.2019280   7.7942599
   1.7502094  30.6829280   7.3322599   0.2802094  30.7409280   7.6862599
   7.0932094  36.4689280   2.4802599   6.5632094  36.8179280   3.1972599
   7.2292094  35.5489280   2.7072599  -1.9897906  28.8749280   5.1602599
  -1.3707906  29.6019280   5.2252599  -2.0027906  28.6539280   4.2282599
   1.2852094  20.6919280   9.9992599   0.8922094  21.5649280   9.9912599
   0.5482094  20.0989280  10.1492599 -19.0167906  11.0759280 -17.8497401
 -19.6537906  11.5339280 -18.3987401 -19.5437906  10.4899280 -17.3077401
   3.6452094  30.5389280   6.4392599   4.4872094  30.1219280   6.6222599
   3.3232094  30.0939280   5.6542599   1.4572094  37.6509280   5.2772599
   1.4742094  37.3849280   6.1962599   1.6572094  36.8509280   4.7922599
  -3.4157906  31.2639280   5.8522599  -3.3047906  30.5419280   5.2332599
  -2.7007906  31.1559280   6.4782599  -2.0747906  12.3379280   0.8612599
  -1.9497906  12.3879280  -0.0857401  -1.2037906  12.4889280   1.2272599
   6.2072094  37.2489280   4.9472599   7.0492094  37.5999280   5.2392599
   6.0332094  36.5179280   5.5402599   3.3452094  34.8399280 -15.4767401
   2.8542094  35.6489280 -15.3337401   2.9972094  34.4909280 -16.2967401
  -5.7727906  36.8479280   5.4322599  -5.2317906  36.9419280   6.2162599
  -5.6377906  35.9419280   5.1552599   0.8072094  33.3889280   2.6902599
   0.0392094  33.0349280   2.2412599   1.3372094  33.7739280   1.9922599
  -1.5597906  31.9529280   1.4022599  -2.2947906  31.5179280   0.9712599
  -1.9567906  32.4289280   2.1312599 -19.6397906  38.1339280   4.4792599
 -19.9177906  37.9359280   3.5852599 -19.2037906  38.9839280   4.4132599
   1.6092094  17.8519280   0.7302599   2.4402094  18.0669280   1.1542599
   0.9412094  18.1929280   1.3252599 -20.1087906  29.5969280 -18.8507401
 -20.9497906  30.0549280 -18.8417401 -19.9227906  29.4569280 -19.7797401
  -4.2387906  35.0089280   0.5932599  -3.4157906  35.4419280   0.8192599
  -4.8777906  35.3739280   1.2042599   0.7802094  28.8819280 -13.2827401
   1.6422094  28.4829280 -13.1637401   0.8112094  29.2659280 -14.1587401
  -1.7937906  30.3919280  -2.0397401  -2.1717906  30.4969280  -1.1657401
  -1.3557906  31.2249280  -2.2137401 -17.7737906  28.6959280   3.9322599
 -17.3797906  29.2419280   4.6122599 -18.5797906  28.3639280   4.3282599
   1.7532094  36.3489280  10.2022599   2.1152094  35.5039280   9.9362599
   2.3692094  36.6789280  10.8562599  -0.4967906   9.0389280 -19.3657401
   0.0362094   8.7619280 -18.6207401   0.1392094   9.2529280 -20.0487401
 -20.7487906  10.8779280   0.2542599 -20.7767906  11.5369280  -0.4397401
 -21.4207906  10.2419280   0.0092599  -6.7847906  37.6959280  -0.7957401
  -7.7217906  37.6089280  -0.9727401  -6.6767906  37.3609280   0.0942599
  -2.4267906  32.6439280   3.8182599  -2.7297906  33.5429280   3.9442599
  -2.9737906  32.1219280   4.4052599 -21.9437906  14.6529280 -18.4807401
 -21.6147906  15.1069280 -19.2567401 -21.1997906  14.6339280 -17.8797401
 -18.2497906  34.2979280   6.5882599 -19.1847906  34.4639280   6.7052599
 -18.1117906  33.4269280   6.9622599 -12.8117906  34.6689280   2.5832599
 -11.9847906  34.1979280   2.6882599 -12.5517906  35.5809280   2.4472599
  -9.6987906  37.6829280  -1.2817401  -9.3917906  37.0939280  -1.9707401
 -10.4677906  38.1109280  -1.6577401 -18.6917906  22.1109280  24.3752599
 -18.7917906  22.8599280  24.9622599 -18.1467906  21.4939280  24.8632599
  -1.5247906  13.6989280  40.5452599  -2.2717906  13.3899280  41.0582599
  -1.8927906  14.3619280  39.9612599 -15.8487906  35.7099280  14.7472599
 -16.5537906  35.1529280  15.0772599 -15.8237906  36.4489280  15.3552599
 -16.1017906  27.1459280  32.0842599 -16.4287906  27.8009280  32.7022599
 -15.1597906  27.3089280  32.0392599 -10.9277906  20.4039280  22.6952599
 -11.5227906  19.6809280  22.8942599 -10.0557906  20.0119280  22.7232599
 -16.9337906  15.4049280  19.3152599 -17.3987906  14.6079280  19.0622599
 -16.9097906  15.9319280  18.5162599 -22.1767906  22.5089280  19.1502599
 -22.9997906  22.8289280  18.7782599 -21.9037906  21.8079280  18.5592599
 -13.7487906  17.1179280  28.4402599 -14.3547906  16.6849280  29.0422599
 -13.4187906  16.4119280  27.8842599 -11.5867906  19.7839280  16.3182599
 -12.1707906  20.2339280  16.9282599 -11.1337906  19.1329280  16.8542599
 -17.1977906  22.1219280  19.5642599 -17.0477906  22.1529280  20.5092599
 -18.0587906  22.5219280  19.4442599 -20.2797906  15.5989280  39.4612599
 -19.5387906  16.0109280  39.9072599 -19.9497906  15.3959280  38.5862599
  -9.8817906  33.9879280  24.8122599  -8.9487906  33.7959280  24.7232599
 -10.2887906  33.5569280  24.0612599 -12.1277906  24.4199280  17.2792599
 -11.6787906  25.2609280  17.3632599 -12.9357906  24.5289280  17.7812599
  -4.3807906  13.2929280  35.6602599  -4.6977906  12.9499280  36.4952599
  -4.4407906  12.5519280  35.0572599 -20.4237906  29.2059280  14.4602599
 -19.6307906  29.7419280  14.4612599 -20.1397906  28.3559280  14.7962599
 -13.1577906  32.4389280  40.8002599 -13.7647906  33.0299280  40.3552599
 -12.2897906  32.7829280  40.5892599  -9.2827906  23.1139280  11.1492599
  -9.9117906  22.4129280  11.3202599  -9.7347906  23.6989280  10.5412599
  -5.8797906  30.4639280  23.9812599  -5.5347906  31.3399280  23.8122599
  -5.1497906  29.8759280  23.7872599 -18.3807906  37.2219280  36.8482599
 -17.9147906  36.5449280  36.3572599 -19.0287906  37.5629280  36.2312599
 -11.0527906  31.5539280  19.1572599 -11.1227906  32.3179280  18.5862599
 -10.7367906  30.8539280  18.5852599  -8.2817906  34.4849280  12.5052599
  -7.6577906  34.4789280  11.7792599  -7.8407906  33.9999280  13.2032599
 -21.2237906  16.3039280  15.7522599 -20.8997906  15.5159280  15.3172599
 -20.4377906  16.7299280  16.0952599 -18.4347906  10.1309280  27.2522599
 -19.3657906  10.2679280  27.0782599 -18.0447906  10.0069280  26.3872599
  -5.8347906  22.8169280  38.9992599  -4.9927906  22.4189280  39.2202599
  -5.6717906  23.2819280  38.1782599 -11.7937906  10.6169280  28.7602599
 -12.0557906  11.5379280  28.7532599 -11.1207906  10.5639280  29.4382599
 -15.9377906  35.3619280  20.3722599 -15.7207906  36.2449280  20.6702599
 -15.7957906  35.3859280  19.4262599 -10.5357906  17.5119280  37.5742599
 -10.9367906  18.2629280  37.1382599  -9.8267906  17.8879280  38.0962599
 -14.4587906  14.8199280  14.1162599 -13.7947906  15.3419280  13.6662599
 -14.8247906  15.4129280  14.7732599 -15.0187906  22.2059280  17.7062599
 -15.6537906  21.9449280  18.3732599 -14.4477906  21.4439280  17.6072599
 -15.1637906  25.7369280  23.1162599 -15.6797906  26.3299280  23.6632599
 -15.1987906  24.8969280  23.5742599  -1.5837906  28.9369280  25.5612599
  -1.9367906  29.4739280  26.2712599  -0.8647906  29.4569280  25.2012599
 -15.6047906  16.6389280  40.4662599 -15.4527906  17.1779280  41.2422599
 -14.7477906  16.5769280  40.0452599 -12.4027906  34.3199280  37.4092599
 -12.4107906  34.7189280  36.5392599 -13.1967906  34.6489280  37.8312599
 -11.6207906  34.7329280  12.1722599 -11.5617906  35.6829280  12.2742599
 -11.1737906  34.3809280  12.9412599 -18.1257906  12.0469280  22.9612599
 -18.9787906  12.3859280  22.6872599 -17.5817906  12.8269280  23.0682599
  -9.6657906  20.7549280  37.6722599  -9.2387906  20.4829280  36.8592599
  -8.9507906  20.8399280  38.3022599 -11.4467906  29.2529280  23.5942599
 -11.4677906  30.0219280  23.0232599 -10.5257906  28.9939280  23.6132599
  -7.2417906  12.9379280  33.8222599  -6.6897906  13.5789280  33.3742599
  -7.5457906  12.3549280  33.1272599  -8.2797906  27.9619280  18.4212599
  -8.7917906  27.3969280  18.9992599  -8.9057906  28.6159280  18.1092599
 -17.8957906  22.5159280  16.6682599 -17.5697906  21.7169280  17.0832599
 -18.4167906  22.9439280  17.3472599 -10.8707906  13.3669280  29.0452599
 -10.0017906  13.7529280  28.9382599 -11.0467906  13.4279280  29.9842599
 -19.8127906  32.1569280  15.6072599 -20.2527906  31.5669280  16.2192599
 -19.0217906  31.6859280  15.3452599 -13.4217906  14.4339280  24.1742599
 -14.3447906  14.2569280  24.3552599 -13.2677906  14.0459280  23.3132599
 -16.3537906  27.4829280  24.8252599 -17.0157906  27.3919280  25.5102599
 -15.7227906  28.1069280  25.1832599 -10.0857906  13.1779280  23.6492599
  -9.2567906  12.7119280  23.5372599 -10.4427906  12.8369280  24.4702599
 -11.8937906  23.9509280  22.5152599 -12.7417906  23.5439280  22.3392599
 -12.0837906  24.8879280  22.5702599 -11.5347906  17.0879280  19.9642599
 -11.4717906  16.3789280  20.6052599 -12.1397906  17.7149280  20.3582599
 -15.4357906  37.2479280  12.2942599 -16.1317906  36.7229280  11.8992599
 -15.5257906  37.0959280  13.2352599  -7.1227906  27.0429280  15.1632599
  -6.9457906  27.0389280  14.2232599  -6.5647906  26.3489280  15.5152599
 -16.8057906   9.3159280  15.0772599 -15.9567906   8.9069280  14.9082599
 -16.6517906  10.2509280  14.9452599 -13.4007906  17.1569280  17.1782599
 -12.9117906  16.8909280  17.9572599 -12.7937906  17.7179280  16.6952599
 -11.8447906  26.8319280  26.5802599 -11.2097906  26.3189280  26.0802599
 -12.6737906  26.3689280  26.4632599 -13.7397906  18.5169280  20.5932599
 -13.5037906  18.7569280  21.4892599 -14.6727906  18.3059280  20.6392599
 -14.1497906  31.5209280  16.3412599 -13.6487906  31.1389280  17.0622599
 -13.5077906  31.6459280  15.6422599 -20.0487906  18.7569280  26.5532599
 -20.6147906  19.2289280  25.9422599 -20.6547906  18.3039280  27.1402599
 -19.0197906  14.3649280  29.1602599 -18.2767906  13.8299280  28.8822599
 -19.7707906  13.9899280  28.6992599 -15.5477906  13.9229280  21.3842599
 -16.1627906  14.5009280  20.9322599 -15.1717906  13.3819280  20.6902599
 -18.3227906  12.7509280  19.2252599 -18.9937906  12.1129280  19.4652599
 -18.0607906  12.5029280  18.3392599   0.8662094  27.6869280  36.2372599
   0.1322094  27.3819280  36.7692599   1.2622094  28.3889280  36.7542599
 -18.8167906  18.4679280  29.8502599 -18.1067906  17.9249280  29.5062599
 -18.6767906  19.3269280  29.4512599 -12.1317906  19.7209280  11.0892599
 -11.8497906  20.4009280  10.4772599 -12.2187906  20.1749280  11.9282599
 -16.6147906  37.2219280  18.0062599 -17.1897906  37.7579280  18.5512599
 -15.8737906  37.7929280  17.8032599  -6.6497906  28.7639280  20.4552599
  -6.9157906  28.5399280  19.5642599  -7.0177906  28.0669280  20.9982599
  -3.9757906  28.1249280  24.3032599  -3.1597906  28.2439280  24.7882599
  -3.7697906  28.4069280  23.4122599 -15.4557906  23.3839280  24.7202599
 -16.0717906  23.0969280  25.3942599 -15.1007906  22.5709280  24.3592599
 -21.2367906  10.2729280  22.9932599 -21.1427906   9.8339280  22.1482599
 -21.0317906  11.1899280  22.8122599 -13.0147906  21.9989280  31.3162599
 -12.9007906  21.0489280  31.3042599 -12.5877906  22.3019280  30.5142599
 -16.9347906  19.5699280  38.9672599 -16.1277906  19.6449280  39.4752599
 -17.6167906  19.4119280  39.6202599 -10.1817906  21.5819280  24.9482599
 -10.5497906  21.7739280  24.0852599  -9.8307906  20.6949280  24.8672599
 -18.1057906  23.8559280  33.7422599 -18.2487906  24.3359280  32.9262599
 -17.8417906  24.5269280  34.3712599 -19.8977906  24.8909280  24.9772599
 -19.2847906  25.5409280  25.3192599 -20.5677906  24.8109280  25.6562599
  -4.5617906  19.2489280  38.2112599  -4.8727906  19.3089280  37.3082599
  -3.6137906  19.3629280  38.1472599 -17.7467906  20.6339280  28.7592599
 -16.9807906  20.1519280  28.4472599 -18.1237906  21.0219280  27.9692599
 -18.3427906  15.4269280  31.7092599 -18.4367906  15.1529280  30.7962599
 -18.3527906  16.3829280  31.6752599  -6.0137906  17.2729280  32.5272599
  -6.6867906  16.6989280  32.1612599  -5.4287906  16.6839280  33.0032599
 -18.4557906  33.0849280  23.7472599 -17.6307906  33.5169280  23.5242599
 -18.9387906  33.7359280  24.2552599 -16.7267906  23.2939280  22.0572599
 -17.3457906  23.8129280  21.5442599 -16.8167906  23.6279280  22.9502599
  -9.3717906  24.6089280  19.1182599  -9.4337906  24.3769280  18.1922599
 -10.0327906  25.2899280  19.2402599 -14.3107906  12.5739280  19.2262599
 -13.9497906  12.8899280  18.3982599 -13.8317906  11.7639280  19.4032599
 -13.5907906  38.3939280  30.1682599 -13.6917906  37.7549280  29.4632599
 -13.0397906  39.0809280  29.7922599 -16.9147906  34.6089280  26.3982599
 -17.8357906  34.8369280  26.2732599 -16.5567906  34.5629280  25.5122599
 -18.6407906  16.4759280  17.1722599 -19.2127906  16.7669280  17.8822599
 -18.4897906  17.2619280  16.6472599  -1.8817906  16.5579280  28.4672599
  -2.3227906  16.8759280  29.2552599  -1.5167906  17.3449280  28.0622599
 -19.2657906  37.6309280  25.0022599 -19.3597906  37.1669280  24.1702599
 -18.7347906  38.3989280  24.7902599 -15.1667906  24.0249280  11.1752599
 -14.6747906  23.3419280  11.6302599 -14.6627906  24.8249280  11.3252599
 -13.0407906  11.3199280  16.2552599 -12.1917906  11.1709280  16.6732599
 -13.0127906  10.7909280  15.4582599 -13.7867906  24.8349280  26.2242599
 -14.0837906  24.4459280  27.0462599 -14.4097906  24.5169280  25.5702599
   2.1322094  19.1449280  33.0482599   1.5932094  18.5759280  33.5972599
   1.5352094  19.8349280  32.7572599  -9.8207906  14.5149280  31.5192599
  -9.5457906  15.4289280  31.4482599  -9.3577906  14.1849280  32.2892599
  -8.8207906  18.4549280  39.7102599  -8.0937906  17.8949280  39.9822599
  -8.4587906  18.9899280  39.0032599  -7.8057906  15.5529280  38.6622599
  -7.5807906  15.4779280  39.5892599  -8.6627906  15.1329280  38.5882599
 -17.0707906  19.9859280  22.9002599 -17.3027906  20.2049280  23.8032599
 -16.2277906  20.4159280  22.7592599  -7.4657906  16.2979280  24.1842599
  -7.3067906  15.5779280  23.5742599  -6.5927906  16.5639280  24.4732599
  -8.8707906  36.1829280  21.8192599  -9.2007906  36.0729280  22.7112599
  -9.5997906  36.5789280  21.3412599 -21.6127906  26.2479280  40.0632599
 -20.9077906  26.5339280  40.6432599 -21.1657906  25.8059280  39.3422599
 -20.3367906  21.8689280  22.1312599 -19.8457906  21.7539280  22.9452599
 -20.4197906  22.8179280  22.0342599 -18.7317906  19.4079280  20.8052599
 -19.4547906  20.0189280  20.9422599 -18.1257906  19.5879280  21.5252599
 -20.3427906  10.7049280  20.1002599 -20.8917906  11.4429280  19.8332599
 -20.9307906   9.9499280  20.0812599 -19.7927906  24.5259280  22.2102599
 -19.8377906  24.5959280  23.1642599 -19.7037906  25.4299280  21.9072599
 -10.2387906  22.6269280  27.3552599 -10.1247906  22.1809280  26.5152599
  -9.4197906  23.1049280  27.4862599  -7.1017906  20.4989280  38.6392599
  -6.2647906  20.0389280  38.7122599  -6.8997906  21.4029280  38.8812599
 -13.3177906  24.3669280  14.4882599 -13.0467906  24.2349280  15.3972599
 -12.9067906  25.1929280  14.2332599 -14.7677906  26.7199280  27.8842599
 -14.9997906  26.0129280  28.4862599 -14.5707906  26.2769280  27.0592599
 -10.4827906  31.8749280  14.6462599 -11.2417906  31.3589280  14.3752599
  -9.7377906  31.4419280  14.2302599 -18.9567906  36.7029280  16.7242599
 -19.2797906  37.5579280  16.4392599 -18.0727906  36.8749280  17.0462599
 -20.6897906  30.5669280  28.4742599 -19.9707906  30.2449280  27.9322599
 -20.5057906  31.4989280  28.5892599 -17.0097906  24.5139280  14.9262599
 -16.2177906  24.0779280  14.6122599 -17.1947906  24.0969280  15.7682599
 -16.0777906  18.8449280  27.5262599 -15.1417906  18.6479280  27.4882599
 -16.4817906  18.0339280  27.8352599 -13.7107906  28.1659280  32.7142599
 -12.9457906  27.8319280  32.2442599 -13.4657906  29.0559280  32.9692599
 -13.9247906  28.8519280  12.2132599 -14.5297906  28.2139280  12.5912599
 -14.0407906  29.6379280  12.7472599 -14.6817906  25.7579280  20.2982599
 -14.7007906  26.6759280  20.0252599 -14.8157906  25.7869280  21.2452599
  -8.7577906  29.1419280  30.4792599  -9.6307906  28.9559280  30.8232599
  -8.6987906  28.6169280  29.6802599 -14.0307906  23.2629280  21.1262599
 -14.9137906  23.1079280  21.4632599 -14.0827906  24.1219280  20.7062599
  -8.0717906  26.8099280  39.4562599  -7.7887906  27.6849280  39.1872599
  -7.5517906  26.6189280  40.2362599  -8.0107906  23.9289280  27.4752599
  -7.8997906  24.7369280  26.9742599  -7.1397906  23.7419280  27.8252599
 -15.0847906  21.6879280  37.3822599 -15.3127906  21.1709280  38.1552599
 -14.3867906  22.2709280  37.6792599  -4.0067906  27.0809280  40.1562599
  -3.6387906  26.1989280  40.1052599  -3.3147906  27.6499280  39.8192599
  -9.1367906  20.4759280  18.9252599  -9.8547906  20.8829280  19.4112599
  -9.4217906  19.5729280  18.7882599 -18.3807906   8.4059280  19.7662599
 -17.8587906   8.7649280  20.4832599 -19.1047906   9.0239280  19.6632599
 -19.6147906  23.7229280  18.6092599 -20.2127906  23.8499280  17.8732599
 -20.0867906  23.1429280  19.2052599  -9.3207906  18.6839280  26.0352599
  -8.6947906  19.3979280  26.1552599  -8.8017906  17.9709280  25.6602599
 -16.4617906  20.9659280  31.4162599 -17.0487906  21.0719280  30.6672599
 -16.0047906  21.8039280  31.4832599 -20.6187906  10.8689280  25.6342599
 -20.8267906  10.4509280  24.7982599 -20.0537906  11.6059280  25.3992599
  -9.8597906  26.6269280  15.3252599  -9.9867906  26.9139280  16.2292599
  -8.9267906  26.7629280  15.1592599 -11.6047906  21.6669280  20.2452599
 -11.3197906  21.6219280  21.1572599 -12.3437906  22.2749280  20.2542599
 -17.5237906  25.0329280  11.8582599 -16.6147906  24.8369280  12.0872599
 -17.7177906  24.4469280  11.1272599 -16.8517906   9.7319280  21.4532599
 -16.1037906  10.3269280  21.4972599 -17.6107906  10.2859280  21.6372599
  -8.7757906  17.7379280  20.6462599  -9.7267906  17.6639280  20.5642599
  -8.4357906  16.9549280  20.2122599  -8.9717906  24.4289280  30.5292599
  -9.4297906  24.0419280  29.7832599  -8.6597906  25.2749280  30.2052599
 -16.7307906  20.1919280  13.7402599 -17.5507906  20.6849280  13.7032599
 -16.0927906  20.8139280  14.0892599 -10.9327906  20.3769280  13.7542599
 -11.2167906  20.3989280  14.6672599 -10.5287906  19.5159280  13.6482599
 -12.2097906  26.6129280  22.9322599 -13.1417906  26.4499280  23.0752599
 -12.1287906  27.5669280  22.9372599  -6.0107906  29.0029280  26.5832599
  -5.2717906  28.4089280  26.4522599  -6.0927906  29.4719280  25.7522599
 -16.4307906  12.3139280  16.8922599 -15.9887906  12.5969280  17.6922599
 -16.0357906  12.8439280  16.1992599  -4.9907906  19.1069280  35.3282599
  -5.7617906  18.6439280  35.0002599  -4.2537906  18.6909280  34.8822599
  -7.9137906  35.0049280  19.4812599  -7.9767906  35.2609280  20.4022599
  -7.9657906  34.0489280  19.4942599 -16.3807906  17.6769280  20.2822599
 -17.1587906  18.2319280  20.2252599 -16.6197906  16.8789280  19.8102599
  -8.2487906  19.7679280  23.1192599  -7.4997906  20.3579280  23.0302599
  -7.9707906  18.9609280  22.6852599 -16.9177906  27.7849280  21.1112599
 -17.5807906  28.0299280  21.7562599 -17.3897906  27.2489280  20.4742599
 -12.2797906  13.2729280  21.6992599 -12.3657906  13.9439280  21.0212599
 -11.4327906  13.4509280  22.1072599 -14.4397906  31.8999280  23.8002599
 -13.6487906  32.3699280  23.5362599 -15.1587906  32.4339280  23.4632599
 -14.8107906  22.2369280  14.9012599 -14.1287906  22.8509280  14.6302599
 -14.8867906  22.3639280  15.8472599 -14.2207906  28.4439280  22.2712599
 -15.1207906  28.1189280  22.2362599 -14.3117906  29.3909280  22.3792599
 -14.3067906  37.9859280  15.3342599 -13.5527906  38.2519280  14.8072599
 -14.1507906  38.3819280  16.1912599 -18.7747906  35.6919280  20.5672599
 -17.8397906  35.4839280  20.5692599 -18.8127906  36.6229280  20.3492599
 -13.1627906  20.2779280  18.4902599 -12.4087906  20.7139280  18.8872599
 -13.5347906  19.7499280  19.1962599  -4.9717906  19.7689280  31.6872599
  -5.2347906  18.9329280  32.0712599  -5.7887906  20.2589280  31.5942599
 -11.1677906  16.5629280  34.2212599 -10.8927906  15.9299280  34.8852599
 -10.8817906  17.4089280  34.5652599  -4.4737906  17.0719280  27.6302599
  -4.6177906  17.8869280  28.1112599  -3.5577906  16.8519280  27.7992599
 -14.9887906  18.1409280  12.5162599 -14.1137906  17.8309280  12.7482599
 -15.4427906  18.2299280  13.3542599 -15.3457906  17.9899280  37.1032599
 -15.7337906  18.5869280  37.7432599 -14.9437906  18.5639280  36.4522599
  -9.3247906  16.7959280  28.3962599 -10.2407906  16.9089280  28.6522599
  -9.0947906  17.6159280  27.9592599 -17.4207906  18.2729280  32.1582599
 -18.3247906  18.5199280  32.3522599 -16.9307906  19.0929280  32.2132599
  -7.1137906  22.0819280  32.1232599  -7.8837906  22.6479280  32.0672599
  -7.0677906  21.8299280  33.0452599 -17.4367906  14.2869280  15.1542599
 -16.8747906  15.0289280  14.9312599 -17.6857906  14.4399280  16.0662599
  -6.6137906  21.2199280  34.9412599  -5.8607906  20.8169280  35.3732599
  -7.3047906  20.5589280  34.9972599 -14.9327906  34.4639280  34.3252599
 -14.2837906  34.6659280  33.6512599 -15.7397906  34.2969280  33.8382599
  -7.8367906  23.6009280  34.5692599  -7.1817906  24.1549280  34.1442599
  -7.3257906  22.9339280  35.0272599  -5.0897906  17.4509280  25.1452599
  -4.6047906  18.2759280  25.1472599  -5.0497906  17.1469280  26.0522599
 -10.6697906  21.4859280  34.0952599 -10.0167906  21.5929280  33.4032599
 -10.9847906  22.3729280  34.2672599 -13.5127906  13.1849280  27.2932599
 -14.3347906  13.2019280  26.8032599 -13.7817906  13.1459280  28.2112599
 -12.5277906  18.3229280  23.2122599 -11.9717906  17.5509280  23.1042599
 -12.6297906  18.4139280  24.1602599 -11.2927906  19.0909280  35.2472599
 -11.0377906  19.9239280  34.8492599 -12.0587906  18.8109280  34.7462599
  -9.9807906  14.5319280  36.4702599 -10.5907906  15.2359280  36.6882599
 -10.5227906  13.8679280  36.0442599  -0.7387906  17.8229280  40.0982599
   0.1472094  17.4629280  40.0452599  -1.3127906  17.0679280  39.9732599
  -4.9757906  14.2369280  28.9662599  -4.0727906  14.0559280  28.7032599
  -5.0267906  15.1919280  29.0092599  -6.9167906  27.8429280  35.4802599
  -7.2247906  27.2739280  36.1852599  -5.9627906  27.8259280  35.5572599
 -10.5027906  26.2739280  29.0892599 -11.2127906  26.2229280  28.4492599
  -9.8527906  26.8459280  28.6812599 -19.7697906  21.3089280  36.2232599
 -19.2777906  21.1609280  35.4162599 -20.0807906  20.4399280  36.4782599
  -8.1327906  37.6749280  37.3152599  -7.4397906  38.2079280  36.9242599
  -8.4747906  38.2129280  38.0292599 -17.1387906  32.0559280  10.6962599
 -16.7177906  32.3049280  11.5192599 -16.4287906  31.7009280  10.1622599
 -19.7847906  26.7039280  12.0472599 -19.6557906  27.6519280  12.0762599
 -18.9397906  26.3549280  11.7662599 -17.1487906  16.6109280  28.8662599
 -16.5497906  16.3149280  29.5522599 -17.6237906  15.8219280  28.6062599
 -16.9017906  14.6999280  33.7902599 -16.9487906  13.7439280  33.7752599
 -17.5547906  14.9829280  33.1512599 -19.2577906  21.2179280  13.8892599
 -20.0907906  20.8499280  14.1862599 -19.3507906  22.1609280  14.0252599
 -10.7327906  10.7239280  36.2692599 -10.9177906  10.7779280  37.2062599
 -11.1377906  11.5079280  35.8982599 -19.3397906  18.0389280  37.7612599
 -19.1037906  17.1529280  37.4872599 -18.7147906  18.2509280  38.4542599
 -13.6627906  38.1249280  33.1182599 -12.8777906  38.6699280  33.1682599
 -13.6447906  37.7579280  32.2342599 -12.5227906  25.3579280  36.8502599
 -12.1997906  24.8199280  36.1262599 -12.2777906  26.2519280  36.6122599
 -17.1167906  14.9969280  38.5792599 -16.5397906  15.2199280  37.8492599
 -16.5827906  15.1429280  39.3602599 -13.7897906  18.5359280  34.0172599
 -14.4477906  19.1289280  34.3802599 -14.2757906  17.7399280  33.8012599
 -20.1767906  17.6239280  23.2692599 -20.6877906  18.2449280  23.7872599
 -20.8287906  17.0429280  22.8792599 -12.6927906  10.1989280  14.0262599
 -13.2427906  10.2699280  13.2452599 -11.8387906  10.5299280  13.7482599
  -7.2557906  33.9859280  36.9002599  -7.9907906  33.4329280  36.6362599
  -6.7227906  34.0699280  36.1092599 -15.6577906  15.5759280  36.1552599
 -16.1387906  15.4619280  35.3362599 -15.5387906  16.5219280  36.2342599
  -8.5017906  19.2559280  35.6142599  -9.3397906  19.1219280  35.1722599
  -8.2027906  18.3739280  35.8342599 -17.6557906  19.9049280  25.7322599
 -18.4197906  19.4849280  26.1262599 -16.9057906  19.4589280  26.1272599
  -6.5077906  26.2819280  29.2642599  -6.3427906  26.9699280  28.6182599
  -6.1457906  25.4899280  28.8682599 -11.3897906   9.8499280  32.9782599
 -11.0147906   9.7309280  33.8512599 -10.6397906  10.0559280  32.4202599
 -18.4387906  10.4709280  33.2062599 -17.7677906  11.0229280  33.6092599
 -19.0587906  11.0899280  32.8222599 -15.0107906  24.9799280  17.6782599
 -15.1977906  24.0499280  17.8032599 -14.9797906  25.3409280  18.5642599
 -13.2667906  23.2809280  38.6052599 -12.8437906  24.0459280  38.2142599
 -13.7527906  23.6309280  39.3522599 -21.0377906   9.0619280  39.5502599
 -20.2377906   9.5079280  39.8282599 -21.7047906   9.7489280  39.5422599
 -10.0817906  20.6499280  29.5722599 -10.5837906  19.8599280  29.3752599
 -10.1607906  21.1869280  28.7832599 -19.7737906  36.3919280  39.1842599
 -19.5467906  36.1979280  38.2742599 -19.9077906  37.3389280  39.2012599
 -13.9897906  27.7149280  39.4872599 -13.7527906  27.2009280  40.2592599
 -14.5847906  28.3869280  39.8192599 -12.0007906  12.9459280  35.3202599
 -12.8997906  13.0089280  35.6432599 -12.0907906  12.8999280  34.3682599
 -14.6537906  19.8439280  40.1312599 -13.7057906  19.9739280  40.1392599
 -14.8227906  19.2579280  40.8692599 -15.4017906  16.6829280  33.1532599
 -15.8087906  15.8249280  33.2712599 -15.9147906  17.0989280  32.4602599
 -16.8537906  10.9219280  40.2662599 -17.4097906  10.8499280  41.0412599
 -17.3377906  10.4639280  39.5792599   6.1212094   8.3409280  37.9822599
   6.4912094   9.0849280  38.4572599   6.6462094   8.2799280  37.1842599
  -3.9857906  11.9669280  32.9642599  -3.9537906  11.0529280  33.2482599
  -3.4757906  11.9839280  32.1542599  -9.7787906  22.8379280  13.8552599
  -9.3827906  23.1129280  13.0292599 -10.2107906  22.0089280  13.6502599
 -13.5927906  19.2679280  31.4152599 -14.5167906  19.4249280  31.2212599
 -13.5847906  18.9799280  32.3282599 -14.6237906  25.5889280  34.2042599
 -13.7437906  25.5039280  34.5702599 -14.8377906  26.5169280  34.3052599
 -15.6017906  16.4419280  16.0002599 -16.1707906  17.1939280  16.1652599
 -14.8437906  16.5849280  16.5662599 -17.9177906  27.2889280  17.1052599
 -17.5207906  28.1339280  17.3182599 -17.4037906  26.9619280  16.3672599
 -21.9347906  37.5689280  11.8312599 -21.6347906  38.0809280  11.0802599
 -21.7747906  36.6589280  11.5812599 -15.9037906  13.0059280  26.0852599
 -16.3857906  13.5579280  25.4702599 -16.5307906  12.8209280  26.7842599
  -7.5617906  16.7149280  35.9472599  -8.2757906  16.0819280  36.0182599
  -7.0907906  16.6399280  36.7772599 -21.1957906  18.0969280  35.8202599
 -20.4867906  17.9729280  36.4512599 -20.7597906  18.4039280  35.0262599
 -17.6977906  12.4419280  37.4872599 -18.6257906  12.5769280  37.2962599
 -17.4637906  13.1659280  38.0672599 -18.2447906  21.1969280  33.9592599
 -18.2857906  22.1429280  34.1012599 -17.9287906  21.1039280  33.0602599
  -1.2707906  10.7149280  34.9202599  -1.6177906  10.5519280  34.0432599
  -1.3697906   9.8799280  35.3772599  -8.1797906  31.5789280  20.7802599
  -7.9917906  32.0439280  19.9642599  -8.0567906  30.6549280  20.5632599
  -7.4967906  20.4909280  26.9482599  -7.8777906  21.2489280  27.3922599
  -6.6397906  20.3779280  27.3592599 -13.0967906  25.6999280  11.2582599
 -12.3317906  25.3249280  10.8222599 -12.7347906  26.1969280  11.9922599
 -13.1697906  36.2629280  35.5862599 -13.3557906  36.0129280  34.6812599
 -12.4227906  36.8579280  35.5222599 -15.6017906  20.2509280  35.0082599
 -16.4427906  20.5719280  34.6802599 -15.2527906  20.9769280  35.5242599
 -22.6457906  17.2439280  30.9852599 -22.9297906  16.4409280  31.4212599
 -22.8317906  17.9389280  31.6162599 -11.4477906  18.3659280  29.3692599
 -12.0617906  17.7079280  29.0442599 -11.5997906  18.3909280  30.3142599
  -8.4257906  29.3709280  11.6652599  -9.2957906  29.6559280  11.3862599
  -7.9637906  29.1769280  10.8502599 -12.0357906  18.4029280  25.9692599
 -11.1027906  18.5959280  25.8752599 -12.0657906  17.6249280  26.5252599
 -19.2557906  15.6269280  36.6582599 -18.4557906  15.1079280  36.7422599
 -19.4017906  15.6909280  35.7142599 -21.8217906  22.6159280  40.2532599
 -21.2737906  23.3799280  40.0712599 -21.8637906  22.5729280  41.2082599
 -11.4667906  21.6299280  39.4982599 -12.1067906  22.1769280  39.0432599
 -10.9087906  21.2829280  38.8022599  -5.8497906  25.0499280  33.2442599
  -6.0057906  25.9729280  33.4452599  -4.9497906  25.0239280  32.9202599
 -21.9377906  11.8539280  34.5742599 -22.2567906  10.9769280  34.3632599
 -21.1747906  11.9749280  34.0082599  -8.9197906  28.1559280  27.8642599
  -8.9927906  28.9609280  27.3512599  -8.1077906  27.7499280  27.5592599
 -12.2937906  15.6139280  26.5412599 -12.2687906  14.7599280  26.9732599
 -12.6717906  15.4359280  25.6802599  -6.9017906  36.0809280  31.5442599
  -7.3517906  35.3829280  31.0682599  -7.5147906  36.3349280  32.2332599
  -7.2547906  12.6249280  36.7292599  -7.9497906  13.2829280  36.7402599
  -7.0217906  12.5369280  35.8052599  -5.1757906  38.5099280  33.2652599
  -5.3847906  37.8099280  32.6472599  -5.5047906  38.1929280  34.1062599
 -13.4347906  16.5199280  38.8712599 -14.0107906  16.6129280  38.1122599
 -12.6257906  16.9619280  38.6142599 -14.8657906  15.5329280  30.3502599
 -14.8887906  14.5769280  30.3232599 -14.0257906  15.7419280  30.7602599
  -5.9137906  38.3799280  16.2922599  -6.0627906  37.6449280  16.8882599
  -6.1967906  38.0559280  15.4372599 -12.9827906  35.6649280  16.0152599
 -13.8797906  35.8829280  15.7612599 -12.4447906  35.9789280  15.2882599
  -4.3837906  37.8319280  38.9432599  -4.8697906  37.0139280  38.8402599
  -4.0827906  37.8199280  39.8522599 -21.6907906  14.4899280  20.2552599
 -22.1637906  14.7569280  19.4672599 -20.8917906  15.0169280  20.2462599
 -11.6607906  31.3429280  31.3972599 -11.6277906  30.3949280  31.5202599
 -12.2917906  31.4709280  30.6882599 -11.7257906  34.1429280  17.9392599
 -11.9187906  34.6249280  18.7422599 -12.0527906  34.7059280  17.2372599
 -20.1377906  27.2189280  21.5902599 -19.6287906  27.7659280  22.1882599
 -19.7577906  27.3889280  20.7282599  -8.8457906  23.9679280  16.4052599
  -8.6947906  23.0299280  16.2912599  -9.4297906  24.2059280  15.6852599
 -20.6447906  13.1129280  22.7042599 -21.1207906  13.4539280  21.9472599
 -20.9687906  13.6269280  23.4432599 -13.0907906  36.5059280  19.2302599
 -13.3907906  36.4979280  18.3222599 -13.6657906  37.1339280  19.6672599
 -11.0847906  28.8239280  31.8852599 -11.1917906  27.9509280  31.5082599
 -10.4707906  28.6989280  32.6102599   5.2402094  34.3259280  22.8192599
   5.4362094  35.1669280  23.2322599   4.2862094  34.3139280  22.7392599
 -17.8127906  37.9559280  28.8582599 -17.6787906  38.1049280  29.7942599
 -18.1977906  38.7719280  28.5382599 -12.3067906  28.3029280  16.7242599
 -12.9567906  27.9499280  16.1172599 -12.8177906  28.8139280  17.3522599
 -19.4857906  33.0409280  29.9822599 -18.6067906  32.6649280  29.9372599
 -19.3957906  33.9089280  29.5892599 -22.7747906  29.9139280  15.3132599
 -21.8817906  29.5909280  15.1972599 -23.3227906  29.2729280  14.8592599
  -7.0517906  34.3179280  15.3602599  -7.1717906  33.5359280  14.8202599
  -7.8927906  34.4349280  15.8032599  -5.2047906  29.9079280  32.0642599
  -5.6997906  30.6349280  32.4422599  -5.6077906  29.1239280  32.4372599
  -9.9697906  33.4089280  32.5172599 -10.3247906  32.6899280  31.9942599
  -9.4857906  33.9449280  31.8892599 -18.1347906  30.9259280  27.1992599
 -17.5357906  31.6719280  27.2302599 -17.6017906  30.1799280  27.4752599
 -17.0147906  29.8329280  17.3792599 -16.3587906  30.2159280  17.9612599
 -17.8307906  29.8709280  17.8782599   7.1962094  30.3779280  40.4702599
   6.5012094  30.4559280  41.1242599   7.1312094  29.4769280  40.1562599
  -5.3277906  36.1079280  18.3542599  -6.1737906  35.7249280  18.5842599
  -4.9407906  35.4849280  17.7392599 -20.5027906  27.2229280  16.1382599
 -21.1497906  27.0619280  16.8262599 -19.6577906  27.0879280  16.5672599
  -8.5067906  37.2179280  17.9862599  -8.0567906  36.5829280  18.5422599
  -8.8457906  36.6999280  17.2562599   1.5062094  33.1519280  24.7202599
   2.0842094  32.4189280  24.5122599   1.7362094  33.8279280  24.0822599
 -16.3167906  27.3399280  12.9942599 -16.9087906  27.9549280  12.5612599
 -16.8157906  26.5249280  13.0492599 -16.9607906  35.8239280  40.5532599
 -17.5567906  35.9869280  39.8212599 -17.4507906  35.2449280  41.1372599
  -6.3757906  27.5029280  31.8572599  -6.3087906  26.7919280  31.2202599
  -7.1187906  28.0259280  31.5562599 -15.5477906  31.5249280  14.0062599
 -15.2397906  32.2879280  13.5182599 -15.1667906  31.6279280  14.8782599
 -12.4367906  31.9139280  27.7322599 -13.1847906  31.6429280  28.2642599
 -12.2987906  31.1869280  27.1242599  -7.3677906  33.5369280  24.6282599
  -6.5667906  33.6469280  24.1162599  -7.7317906  32.7039280  24.3282599
 -13.6457906  13.8739280  16.3622599 -13.9617906  14.1069280  15.4892599
 -13.3937906  12.9539280  16.2892599 -18.5397906  28.5829280  23.1832599
 -18.9687906  29.3919280  23.4602599 -17.7787906  28.5059280  23.7592599
 -19.5657906  23.9199280  13.8242599 -19.1767906  24.5779280  13.2482599
 -19.0127906  23.9279280  14.6052599 -18.6337906  26.2169280  19.5432599
 -18.5817906  26.5979280  18.6672599 -19.2207906  25.4679280  19.4452599
 -11.6487906  37.7989280  24.7132599 -10.8527906  37.4579280  25.1212599
 -11.9837906  38.4419280  25.3392599 -11.5417906  37.8599280  11.3682599
 -11.6687906  37.5369280  10.4762599 -12.0867906  38.6459280  11.4182599
 -12.6487906  22.7719280  28.5472599 -13.1067906  21.9349280  28.4672599
 -11.8757906  22.6769280  27.9912599 -16.1077906  33.3029280  17.6382599
 -15.4987906  32.8199280  17.0802599 -16.7607906  33.6549280  17.0332599
 -22.0317906  26.2139280  13.6842599 -21.4377906  26.2689280  14.4332599
 -21.5067906  26.5049280  12.9392599 -15.8997906  34.4919280  23.6312599
 -16.0517906  35.4279280  23.7592599 -14.9517906  34.3899280  23.7152599
 -12.8437906  33.9409280  22.1292599 -12.7517906  34.6399280  22.7772599
 -13.2817906  34.3589280  21.3872599 -11.9067906  30.7079280  12.5592599
 -11.9417906  29.8239280  12.1932599 -12.3787906  31.2489280  11.9262599
 -22.1977906  23.1789280  13.0472599 -22.8267906  23.8899280  13.1662599
 -21.3467906  23.5789280  13.2242599  -6.9597906  32.3189280  18.5532599
  -6.8987906  32.2089280  17.6042599  -6.0557906  32.4459280  18.8392599
 -15.1347906  24.0729280  28.8412599 -15.4317906  24.0419280  29.7502599
 -14.3577906  23.5139280  28.8222599 -18.4477906  30.9979280  21.5192599
 -18.9867906  31.4479280  22.1702599 -17.7567906  31.6249280  21.3052599
 -11.1827906  31.6949280  21.8392599 -10.8987906  31.6889280  20.9252599
 -11.8627906  32.3679280  21.8752599 -19.5047906  30.7849280  24.7882599
 -19.1677906  31.5409280  24.3072599 -18.9947906  30.7679280  25.5982599
  -3.5917906  37.3379280  19.9212599  -4.1307906  37.7259280  20.6102599
  -4.2147906  37.0979280  19.2352599 -21.8207906   8.4309280  36.3512599
 -21.0357906   8.5019280  35.8082599 -21.5707906   8.8249280  37.1872599
 -22.0307906  25.1229280  26.5312599 -22.6347906  24.6889280  27.1342599
 -22.5057906  25.8979280  26.2322599 -16.0737906  32.6139280  20.5992599
 -15.9737906  33.5219280  20.8842599 -15.9437906  32.6439280  19.6512599
 -11.5037906  27.6559280  35.9542599 -10.7727906  27.7669280  35.3462599
 -11.3327906  28.2879280  36.6522599 -19.4817906  27.8089280  28.8152599
 -20.3707906  28.0019280  29.1142599 -18.9177906  28.1129280  29.5252599
 -19.7067906  30.3819280  18.7942599 -19.3937906  31.1389280  19.2902599
 -20.6607906  30.4589280  18.8152599  -7.3757906  31.6899280  30.6232599
  -6.8067906  31.5479280  29.8672599  -7.8117906  30.8489280  30.7572599
 -15.7507906  29.8859280  19.8912599 -15.5497906  30.6479280  20.4352599
 -16.2637906  29.3129280  20.4612599 -10.3287906  34.4559280  39.8482599
 -10.6537906  34.4119280  40.7472599 -11.1117906  34.5979280  39.3162599
 -10.7467906  37.3229280  20.3182599 -11.5847906  36.9749280  20.0122599
 -10.2917906  37.5889280  19.5192599 -11.5427906  34.5309280  27.1402599
 -10.9187906  34.4609280  26.4182599 -11.5427906  33.6619280  27.5432599
 -11.9467906  26.9079280  13.3782599 -12.1407906  27.8399280  13.4832599
 -11.2507906  26.7349280  14.0132599 -19.6387906   9.0189280  15.1882599
 -18.6837906   9.0859280  15.1822599 -19.9347906   9.8439280  15.5722599
 -13.3917906  29.8909280  18.5882599 -13.9957906  29.9179280  19.3302599
 -12.6017906  30.3289280  18.9062599   6.0422094  32.3489280  21.0762599
   5.3202094  31.7259280  20.9862599   5.7332094  32.9829280  21.7232599
 -13.0067906  24.3119280  32.4082599 -13.9167906  24.5869280  32.5162599
 -13.0637906  23.4029280  32.1142599 -14.8187906  29.7579280  25.2742599
 -13.9207906  29.7679280  25.6052599 -14.8347906  30.4379280  24.6012599
   2.6512094  33.6069280  19.1972599   1.7642094  33.8549280  18.9382599
   3.0882094  33.3859280  18.3742599 -14.5717906  28.1609280  35.8772599
 -14.7647906  27.6209280  36.6442599 -13.6167906  28.1599280  35.8172599
   7.0302094  35.3319280  19.5632599   6.4242094  34.6339280  19.3102599
   7.6192094  34.9199280  20.1952599  -9.5387906  34.4569280  16.1782599
  -9.7347906  34.2909280  17.1002599 -10.2997906  34.1199280  15.7062599
  -8.8447906  31.6319280  23.3652599  -9.7517906  31.5539280  23.0672599
  -8.3377906  31.7479280  22.5622599 -14.8467906  31.6369280  35.2142599
 -14.1817906  31.1369280  34.7412599 -14.8577906  32.4909280  34.7802599
   6.0062094  37.3989280  30.1622599   6.5372094  37.2339280  30.9412599
   5.1042094  37.2749280  30.4562599 -15.6127906  10.6209280  30.4112599
 -15.0607906   9.8549280  30.2542599 -16.3637906  10.2799280  30.8982599
  -6.1467906  20.7189280  11.8112599  -6.6687906  21.4739280  11.5382599
  -6.5807906  20.4009280  12.6032599 -11.3687906  24.2999280  34.5582599
 -10.7247906  24.8249280  34.0822599 -12.0267906  24.0739280  33.9012599
 -11.9167906  28.1859280  20.5512599 -12.7087906  28.2429280  21.0852599
 -11.2027906  28.3689280  21.1622599 -16.0437906  36.9089280  24.8472599
 -15.4527906  37.6419280  25.0212599 -16.8487906  37.1339280  25.3132599
 -13.0427906  31.0369280  37.2942599 -13.5297906  31.0749280  36.4702599
 -13.0797906  31.9299280  37.6362599 -10.6997906  26.7849280  18.3512599
 -11.0677906  27.0129280  19.2052599 -11.2477906  27.2539280  17.7212599
   1.8502094  28.0109280  23.0992599   2.0922094  27.3019280  23.6942599
   1.3782094  27.5769280  22.3882599 -21.3587906  38.1469280  26.5072599
 -21.3797906  39.0979280  26.6182599 -20.5277906  37.9759280  26.0642599
 -15.9797906  28.9779280  28.5042599 -15.3617906  28.2809280  28.2852599
 -16.5377906  28.5999280  29.1842599  -3.9447906  36.0459280  13.9632599
  -3.0857906  35.7639280  14.2762599  -4.5597906  35.7129280  14.6162599
 -14.4547906  12.6139280  12.4742599 -14.3637906  13.2569280  13.1772599
 -15.2757906  12.1599280  12.6682599 -11.6107906  37.1989280  14.0832599
 -11.6007906  38.0299280  14.5592599 -11.2077906  37.4019280  13.2382599
 -16.6797906  31.9419280  30.7142599 -16.4857906  31.7249280  29.8022599
 -15.8527906  32.2779280  31.0622599 -12.6017906  36.8699280  22.5762599
 -11.8047906  36.7319280  22.0642599 -12.2897906  37.0399280  23.4652599
  -5.4247906  30.7999280  38.0402599  -5.1737906  31.3089280  38.8112599
  -4.6917906  30.9069280  37.4332599 -21.1317906  36.8859280  18.1962599
 -20.4627906  36.3769280  17.7402599 -21.9167906  36.3399280  18.1582599
   3.1112094  31.1969280  23.8182599   2.9152094  31.1799280  22.8812599
   3.2692094  30.2819280  24.0482599  -3.5027906  35.1129280  24.6462599
  -3.2017906  35.3109280  25.5332599  -3.4507906  34.1589280  24.5822599
 -19.4587906  33.1449280  19.6802599 -19.0567906  33.9809280  19.9152599
 -20.2947906  33.3849280  19.2792599 -21.3997906  35.1909280  11.0102599
 -20.6237906  35.5039280  10.5452599 -21.5777906  34.3319280  10.6282599
   6.7962094  36.3039280  25.9372599   7.2922094  35.5699280  25.5732599
   7.4522094  36.9829280  26.0952599 -21.3007906  27.4959280  24.2202599
 -21.9907906  27.8809280  23.6802599 -20.8077906  26.9389280  23.6172599
 -18.8677906  35.3029280  28.7602599 -19.0497906  35.2559280  27.8222599
 -18.3597906  36.1079280  28.8652599  -9.5327906  30.4879280  26.2262599
 -10.4847906  30.3949280  26.2512599  -9.2927906  30.2619280  25.3282599
  -9.8567906  29.8019280  16.9782599  -9.3267906  30.2419280  16.3132599
 -10.4097906  29.1969280  16.4832599 -19.3717906  14.6169280  12.5192599
 -18.8097906  15.2839280  12.1242599 -18.8367906  14.2349280  13.2152599
 -15.6177906  30.9109280  38.7272599 -16.2047906  30.8009280  37.9792599
 -14.7387906  30.8359280  38.3542599 -22.6757906  11.9949280  16.4512599
 -22.8207906  11.0809280  16.2092599 -22.7397906  12.0029280  17.4062599
  -7.4727906  29.2889280  38.7482599  -8.1047906  29.9649280  38.5062599
  -6.6327906  29.6199280  38.4282599  -2.9087906   8.7269280  36.9292599
  -3.5057906   8.4889280  37.6382599  -2.5167906   9.5529280  37.2122599
   3.5632094  31.5839280  32.7612599   3.0942094  32.2769280  32.2972599
   4.4292094  31.5659280  32.3542599 -14.1167906  13.3719280  36.8332599
 -14.2467906  13.2709280  37.7762599 -14.8457906  13.9229280  36.5472599
 -17.7577906   9.4359280  38.2312599 -17.5757906  10.2449280  37.7542599
 -17.8887906   8.7789280  37.5472599 -10.1967906  30.4849280  35.1412599
 -10.0997906  30.2059280  36.0522599  -9.6727906  29.8589280  34.6412599
 -18.0647906  34.8659280  12.6952599 -17.9817906  34.1449280  13.3192599
 -18.8847906  35.2969280  12.9332599 -13.5367906  34.8989280  25.3172599
 -13.0817906  34.6929280  26.1332599 -13.7037906  35.8409280  25.3662599
   0.5592094  37.7899280  27.5852599   0.4952094  36.8349280  27.6002599
   0.1822094  38.0419280  26.7432599  -6.5567906  31.8849280  33.0722599
  -6.9077906  31.9889280  32.1882599  -7.3167906  31.9919280  33.6462599
 -15.8177906  24.4309280  31.3482599 -16.3917906  24.1729280  32.0702599
 -15.8187906  25.3879280  31.3722599  -6.4017906  36.3669280  26.6542599
  -6.0197906  36.8889280  27.3582599  -5.8307906  36.5239280  25.9012599
  -8.6707906  32.5949280  34.6982599  -9.1817906  31.8139280  34.9082599
  -9.2307906  33.0959280  34.1052599  -9.2747906  25.4329280  32.9602599
  -8.7117906  24.8229280  33.4372599  -9.3837906  25.0339280  32.0972599
  -9.3297906  27.9159280  34.1382599  -9.2107906  27.1069280  33.6402599
  -8.6167906  27.9129280  34.7762599 -17.2947906  29.2999280  11.2482599
 -18.1997906  29.3389280  10.9382599 -16.9437906  30.1729280  11.0742599
 -18.8927906  32.1689280  38.5182599 -19.0377906  31.2329280  38.3782599
 -18.2057906  32.2089280  39.1832599   0.5282094  33.8039280  36.8832599
   1.0612094  34.2209280  36.2052599  -0.1687906  34.4349280  37.0612599
  -1.7127906  35.6329280  36.8922599  -2.0607906  35.7749280  36.0122599
  -1.4627906  36.5059280  37.1952599  -8.1147906  34.2199280  30.2572599
  -7.9847906  34.2299280  29.3082599  -8.1757906  33.2919280  30.4812599
 -11.1547906  37.9239280  35.7372599 -11.2927906  38.7119280  36.2632599
 -10.2187906  37.7409280  35.8202599 -17.1857906  33.9679280  32.6812599
 -16.6777906  34.3629280  31.9722599 -17.5457906  33.1669280  32.3012599
 -14.3527906  10.9899280  35.5432599 -14.7207906  10.2479280  36.0222599
 -14.3437906  11.7049280  36.1792599 -19.2427906  29.4089280  38.5452599
 -20.1167906  29.2959280  38.1722599 -18.6487906  29.0969280  37.8642599
 -11.1147906  28.5149280  40.3872599 -12.0027906  28.3349280  40.0782599
 -10.8037906  27.6769280  40.7272599 -12.1757906  29.5109280  26.3622599
 -11.7617906  28.7619280  26.7902599 -11.9237906  29.4319280  25.4422599
 -15.0117906  26.0429280  37.5802599 -14.8617906  26.5289280  38.3912599
 -14.1417906  25.7489280  37.3112599  -8.1187906  36.0369280  40.0682599
  -9.0167906  35.7969280  40.2952599  -8.2097906  36.6289280  39.3212599
  -8.2107906  37.2399280  34.1242599  -7.6637906  36.7989280  34.7752599
  -8.1637906  38.1659280  34.3592599 -14.8007906  34.0489280  39.7232599
 -15.4657906  34.4339280  40.2942599 -15.2437906  33.9319280  38.8832599
  -5.5767906  34.2759280  34.8442599  -4.8207906  34.1929280  34.2632599
  -6.1687906  33.5759280  34.5692599  -6.4297906  33.4639280  27.1372599
  -6.8317906  33.4149280  26.2702599  -6.1187906  34.3659280  27.2072599
 -22.9147906  34.1279280  33.5692599 -23.0277906  33.3319280  34.0882599
 -21.9747906  34.1679280  33.3922599 -14.0797906  33.7219280  13.3982599
 -13.3597906  33.7919280  12.7722599 -14.5197906  34.5709280  13.3532599
 -17.3267906  25.4639280  36.0732599 -17.4357906  24.5569280  36.3612599
 -16.4687906  25.7209280  36.4112599 -12.8937906  11.9899280  32.4382599
 -13.6977906  11.8969280  32.9492599 -12.3037906  11.3259280  32.7942599
 -11.4747906  37.3879280  38.5122599 -12.4247906  37.3819280  38.3942599
 -11.1217906  37.2329280  37.6362599 -14.3287906  21.0929280  23.3892599
 -14.0547906  21.6469280  22.6592599 -13.5637906  20.5489280  23.5782599
 -17.9437906  30.4419280  15.1072599 -17.3287906  30.7729280  14.4522599
 -17.4247906  30.3709280  15.9092599 -21.6287906  32.3039280  12.8962599
 -21.1087906  31.8079280  12.2642599 -21.1907906  32.1579280  13.7342599
 -21.5367906  29.3569280  32.9402599 -21.2867906  28.6889280  32.3022599
 -20.8507906  30.0209280  32.8742599 -15.3997906  34.6379280  30.6712599
 -15.3877906  35.0849280  29.8252599 -14.5707906  34.8829280  31.0832599
 -11.9677906  10.6269280  38.7432599 -12.8477906  10.4279280  38.4232599
 -12.0917906  10.8459280  39.6662599 -10.6517906  29.5299280  37.7862599
 -11.4587906  30.0249280  37.6422599 -10.3737906  29.7759280  38.6682599
  -1.1667906  34.2939280  29.8622599  -0.9287906  33.9249280  29.0122599
  -1.6747906  33.6029280  30.2892599 -20.9027906  34.4789280  37.0522599
 -21.7827906  34.8169280  36.8902599 -21.0027906  33.9029280  37.8102599
   3.6882094  31.8459280  14.5042599   4.4552094  31.7319280  13.9432599
   3.3402094  32.7039280  14.2632599 -10.7057906  36.7729280  32.7662599
  -9.9497906  36.7839280  33.3532599 -10.8987906  37.6969280  32.6062599
 -15.9077906  38.0949280  35.0162599 -15.4077906  37.5609280  35.6332599
 -15.2757906  38.3359280  34.3392599 -13.9177906  30.1069280  30.4712599
 -14.5817906  30.0269280  29.7862599 -13.8267906  29.2209280  30.8222599
  -8.2777906  11.7929280  39.3512599  -8.6407906  10.9239280  39.1752599
  -7.7587906  11.9969280  38.5732599  -5.7107906  24.1609280  36.5212599
  -5.0377906  24.8409280  36.4792599  -6.5187906  24.6349280  36.7162599
  -9.7477906   9.9899280  30.6142599  -8.8477906  10.0399280  30.9372599
  -9.8727906   9.0669280  30.3942599 -14.5597906   9.7029280  38.7572599
 -15.2167906   9.8439280  39.4392599 -14.6237906   8.7689280  38.5532599
 -12.6767906  30.4499280  33.7802599 -12.5167906  30.9349280  32.9702599
 -11.8167906  30.3849280  34.1952599  -7.6807906  25.6969280  37.0102599
  -7.5717906  26.1279280  37.8582599  -8.2677906  24.9629280  37.1882599
 -15.5337906  34.8469280  36.9092599 -16.4587906  34.7209280  36.6962599
 -15.0927906  34.8619280  36.0602599  -8.3597906  29.3459280  14.3922599
  -8.4447906  29.2029280  13.4492599  -7.7897906  28.6379280  14.6912599
 -15.6727906  35.9829280  28.2982599 -15.9837906  35.7119280  27.4342599
 -16.2717906  36.6819280  28.5602599   2.2812094  11.4489280  36.0182599
   1.9472094  11.1299280  35.1802599   2.8242094  10.7329280  36.3482599
  -7.0147906  37.1589280  13.8672599  -7.1507906  36.2329280  13.6672599
  -7.6827906  37.6159280  13.3562599 -13.7267906   9.6119280  11.7892599
 -14.4107906   8.9419280  11.7652599 -14.1397906  10.3899280  11.4162599
 -14.7797906  37.6039280  21.1512599 -14.2007906  37.2819280  21.8412599
 -15.3017906  38.2849280  21.5752599 -14.3897906  37.0229280  38.4112599
 -14.7157906  36.4389280  37.7262599 -14.7917906  36.6959280  39.2162599
  -9.6907906  23.6709280  36.9732599  -9.8127906  22.7219280  36.9502599
  -9.6097906  23.9239280  36.0532599 -17.3107906   8.6119280  31.5112599
 -17.6607906   9.2389280  32.1442599 -17.4487906   7.7569280  31.9202599
 -10.5697906  14.7819280  18.4912599  -9.7487906  14.3549280  18.2482599
 -11.2357906  14.3379280  17.9662599 -12.0387906  14.6469280  40.5802599
 -11.6917906  15.3249280  41.1592599 -12.6587906  15.1079280  40.0142599
   0.0122094  30.2819280  40.5162599   0.2972094  29.5969280  41.1222599
   0.5852094  30.1819280  39.7562599 -22.7517906  15.1639280  28.1972599
 -22.0337906  15.7679280  28.3862599 -23.0947906  15.4569280  27.3532599
   5.4082094  31.7589280  25.4822599   4.7512094  31.8889280  24.7992599
   6.2232094  31.6009280  25.0042599  -3.2787906  25.6759280  37.2602599
  -2.5207906  25.3089280  36.8052599  -3.2747906  25.2479280  38.1162599
 -22.3497906  31.3269280  23.8722599 -22.5997906  30.4189280  23.7022599
 -21.4527906  31.2719280  24.2012599  -8.0147906  19.6949280  31.1092599
  -8.6917906  20.1679280  30.6252599  -7.4347906  20.3809280  31.4422599
 -17.1967906  12.3519280  28.5762599 -16.6827906  11.8509280  29.2082599
 -17.7027906  11.6919280  28.1012599 -12.3047906  15.5709280  31.5282599
 -11.4647906  15.2289280  31.2202599 -12.1837906  15.6909280  32.4702599
 -17.3817906  17.3609280  23.9602599 -18.2677906  17.2799280  24.3122599
 -17.4057906  18.1589280  23.4312599 -21.5697906  33.8179280  21.7032599
 -20.9287906  33.2349280  21.2962599 -22.3717906  33.2979280  21.7512599
 -22.2537906  11.8729280  12.7202599 -21.9087906  12.3779280  11.9842599
 -23.1927906  11.8059280  12.5462599   2.6402094  31.4369280  16.9612599
   3.3512094  31.0279280  17.4552599   3.0132094  31.6009280  16.0952599
  -4.7957906  15.4429280  37.8332599  -5.4867906  14.9969280  38.3222599
  -4.7127906  14.9409280  37.0222599 -21.1167906  22.9989280  16.2682599
 -21.7387906  22.9489280  15.5412599 -21.0507906  22.0999280  16.5892599
  -2.9167906  16.2189280  39.8482599  -3.3567906  15.9539280  39.0402599
  -3.5387906  16.0049280  40.5422599   6.4052094  32.2019280  16.4522599
   6.5532094  32.7549280  15.6852599   6.6182094  31.3169280  16.1552599
   1.3712094  12.8659280  39.8892599   1.1072094  13.4579280  39.1852599
   0.6222094  12.8539280  40.4862599   4.2082094   9.0509280  33.9702599
   3.2992094   8.8089280  33.7912599   4.6462094   8.2199280  34.1542599
   4.2422094  28.7869280  24.1472599   3.3932094  28.5019280  23.8102599
   4.6202094  28.0009280  24.5412599  -0.2807906  32.3489280  26.8832599
   0.5072094  32.2619280  27.4192599   0.0462094  32.5029280  25.9972599
 -22.6387906  20.2689280  22.2202599 -22.3717906  20.0409280  23.1102599
 -21.9127906  20.7889280  21.8772599  -4.4697906  34.1829280  16.6572599
  -3.9467906  33.4359280  16.3652599  -5.2157906  34.2019280  16.0582599
   0.4292094  31.6019280  21.1062599   0.1582094  32.1609280  20.3772599
  -0.2617906  30.9429280  21.1712599   2.9252094  34.9499280  26.6142599
   2.7272094  34.0549280  26.3402599   2.0732094  35.3289280  26.8302599
 -22.7817906  14.7709280  17.9032599 -23.3597906  14.3299280  17.2792599
 -22.1037906  15.1729280  17.3592599 -17.4017906  10.0749280  24.7152599
 -16.4597906   9.9819280  24.5682599 -17.6927906  10.6809280  24.0342599
  -1.8337906  19.7869280  38.7182599  -1.3277906  19.1749280  39.2522599
  -1.3407906  19.8559280  37.9002599 -14.2627906  12.8349280  30.0422599
 -13.6557906  12.5319280  30.7182599 -14.9977906  12.2229280  30.0892599
   4.8612094  15.6659280  39.1072599   5.3802094  16.4399280  38.8872599
   4.7012094  15.2359280  38.2672599  -5.7667906  18.2129280  40.7092599
  -5.8797906  19.1499280  40.8642599  -5.4527906  18.1549280  39.8062599
 -18.6277906  27.6969280  26.1762599 -19.5377906  27.8949280  25.9552599
 -18.5757906  27.8289280  27.1222599 -20.1167906  12.5259280  32.4852599
 -20.5067906  12.0229280  31.7702599 -19.8127906  13.3339280  32.0702599
   7.0542094  30.9209280  34.3332599   7.7072094  30.4469280  33.8192599
   6.3102094  31.0249280  33.7392599   0.1592094  38.2069280  17.2942599
  -0.4947906  38.5439280  17.9062599   0.8312094  37.8149280  17.8532599
 -10.6727906  15.8919280  22.8362599  -9.7327906  15.8669280  22.6572599
 -10.8457906  15.0859280  23.3222599   3.1222094  29.5349280  39.5502599
   2.6172094  29.4539280  38.7422599   3.6242094  30.3429280  39.4402599
 -20.1757906  17.3629280  19.2482599 -19.7527906  17.5649280  20.0832599
 -21.0417906  17.7639280  19.3152599 -20.8457906  16.6879280  29.0412599
 -19.9947906  17.0919280  29.2092599 -21.4037906  16.9979280  29.7542599
 -16.7467906  11.9409280  13.9492599 -17.0997906  12.8049280  14.1632599
 -17.4367906  11.5219280  13.4342599  -5.9647906  38.0979280  21.2342599
  -6.4917906  37.5119280  21.7772599  -6.5337906  38.3209280  20.4982599
 -16.9257906  18.7169280  15.9782599 -17.1767906  19.2729280  16.7162599
 -16.9397906  19.3019280  15.2212599  -0.7617906  36.2839280  31.9922599
  -0.5207906  35.7489280  31.2362599  -0.4047906  37.1509280  31.7962599
   3.1922094  36.8869280  31.1912599   2.5752094  36.3049280  30.7462599
   2.8662094  37.7679280  31.0062599  -6.8607906  24.3809280  11.2892599
  -7.7427906  24.0429280  11.4422599  -6.4217906  23.6889280  10.7942599
  -2.3457906  36.0339280  27.1162599  -2.7977906  36.8439280  27.3542599
  -2.8997906  35.3369280  27.4662599  -5.6327906  32.9219280  22.2082599
  -5.6787906  32.5279280  21.3372599  -4.9357906  33.5749280  22.1402599
 -18.7137906  25.6699280  31.5182599 -19.2547906  26.0659280  30.8352599
 -18.0277906  26.3169280  31.6862599   0.2282094  34.1349280  18.3622599
  -0.5957906  34.5509280  18.1092599   0.2462094  33.3159280  17.8672599
 -21.5577906  15.2469280  24.7772599 -22.4457906  15.1739280  25.1242599
 -21.2647906  16.1169280  25.0472599 -21.6087906  26.7679280  18.7732599
 -21.0257906  26.8959280  19.5222599 -22.3987906  26.3779280  19.1472599
 -11.9617906  26.4789280  31.1782599 -11.2957906  26.3129280  30.5112599
 -12.1197906  25.6239280  31.5782599   4.2992094  36.2919280  24.9142599
   3.8172094  35.7849280  25.5672599   5.1972094  36.3169280  25.2442599
 -17.6437906  22.9549280  26.9922599 -16.9717906  22.8729280  27.6682599
 -18.3927906  23.3439280  27.4432599   0.0342094  22.8199280  39.9002599
   0.2602094  23.7299280  40.0952599  -0.4727906  22.8679280  39.0902599
 -18.4067906  19.3059280  11.6622599 -19.1127906  19.8789280  11.9612599
 -17.6887906  19.4699280  12.2742599   1.3262094  17.4069280  34.9902599
   0.6502094  16.8659280  34.5832599   2.1082094  16.8549280  34.9902599
 -14.2987906  27.3609280  15.3082599 -14.3677906  26.4309280  15.5242599
 -14.9387906  27.4929280  14.6092599 -21.8977906  20.6339280  14.1272599
 -22.0457906  21.2959280  13.4522599 -22.5677906  19.9699280  13.9632599
  -6.5507906  14.0989280  22.4192599  -5.6567906  13.7889280  22.5592599
  -7.0857906  13.3059280  22.4402599   5.1762094  17.6489280  36.0332599
   5.7672094  17.6999280  36.7842599   4.6632094  18.4559280  36.0762599
   6.5952094  28.9009280  23.0972599   5.7032094  28.9089280  23.4442599
   6.4832094  28.8869280  22.1472599  -0.1207906  19.8059280  36.7662599
  -0.0487906  18.9919280  36.2672599   0.7712094  19.9839280  37.0652599
  -0.4697906  26.2589280  24.3422599  -0.3337906  26.9929280  24.9402599
  -1.3167906  26.4359280  23.9322599  -4.2587906  27.3619280  35.2962599
  -4.0187906  26.7359280  35.9802599  -3.4597906  27.8639280  35.1392599
 -21.8337906  20.2199280  17.0802599 -22.0067906  20.0049280  16.1632599
 -21.9747906  19.3979280  17.5502599  -3.3827906  37.4539280  11.4832599
  -2.4257906  37.4459280  11.4772599  -3.6227906  36.9339280  12.2502599
   0.2802094  13.0169280  37.2312599   0.9802094  12.5889280  36.7392599
  -0.3567906  13.2769280  36.5662599   6.5902094  29.7389280  27.4172599
   6.3062094  30.5509280  26.9972599   7.4792094  29.9239280  27.7192599
 -14.8897906   9.3649280  17.6752599 -14.4267906   9.8399280  18.3652599
 -15.2007906  10.0479280  17.0812599  -9.1067906   9.2439280  39.4082599
 -10.0037906   9.1109280  39.7132599  -8.5677906   9.1279280  40.1912599
  -3.2607906  21.8909280  39.9342599  -3.1917906  21.3689280  40.7342599
  -2.8737906  21.3399280  39.2542599   1.0012094  25.2249280  40.3282599
   0.9642094  25.8179280  41.0782599   1.8422094  25.4149280  39.9122599
   1.5712094  24.8869280  37.1342599   1.6862094  25.7729280  36.7922599
   1.2252094  25.0139280  38.0182599   5.3062094  21.5119280  34.5982599
   5.9492094  21.1119280  35.1852599   4.6402094  21.8729280  35.1832599
 -21.8367906  22.3589280  37.4102599 -21.5347906  22.4459280  38.3142599
 -21.0687906  22.0509280  36.9292599   1.3002094  10.1709280  38.7292599
   1.9682094   9.8659280  38.1152599   1.5932094  11.0449280  38.9872599
 -22.1297906  12.9169280  37.1942599 -21.9907906  12.7709280  36.2592599
 -21.9357906  13.8449280  37.3242599   5.2182094  34.2059280  10.8152599
   4.8392094  34.8199280  10.1852599   5.9782094  34.6669280  11.1702599
 -19.8957906  18.6919280  33.5342599 -20.4867906  19.2599280  33.0392599
 -19.3127906  19.2959280  33.9942599  -1.6187906  13.4359280  35.0222599
  -2.4627906  13.6999280  35.3872599  -1.5567906  12.4999280  35.2122599
   3.7312094  14.0149280  36.5532599   3.0082094  13.4019280  36.4202599
   4.5102094  13.5299280  36.2802599   5.9472094  36.6199280  13.6622599
   6.0632094  35.7209280  13.9702599   6.6652094  36.7579280  13.0452599
 -20.1637906  15.5079280  33.9442599 -19.8967906  16.3199280  33.5122599
 -20.7087906  15.0599280  33.2962599  -0.3797906  32.9069280  11.4332599
  -1.1557906  32.8349280  11.9892599  -0.3067906  32.0509280  11.0112599
 -19.5777906  27.1339280  35.4052599 -20.2027906  26.4099280  35.4292599
 -18.7297906  26.7269280  35.5822599 -17.6297906  23.6809280  39.3452599
 -17.5627906  23.0819280  38.6022599 -16.7217906  23.8529280  39.5962599
  -0.6257906  15.7849280  33.8482599  -0.1797906  15.6659280  33.0102599
  -0.8277906  14.8959280  34.1412599   0.2422094  35.2579280  26.5702599
  -0.6947906  35.2559280  26.7642599   0.3652094  34.5179280  25.9752599
 -21.0987906  13.1839280  14.8412599 -21.4197906  12.7669280  14.0412599
 -21.7267906  12.9249280  15.5152599   3.8992094  37.3299280  11.8382599
   4.7192094  36.9789280  12.1852599   3.5192094  37.8189280  12.5682599
   1.4432094  31.9789280  28.9822599   1.4632094  31.1929280  29.5292599
   2.3362094  32.0599280  28.6462599   4.5962094  36.4799280  38.9722599
   4.0532094  37.0109280  39.5562599   5.2562094  37.0889280  38.6402599
 -16.6507906  29.9669280  35.9932599 -16.1897906  30.7449280  35.6802599
 -16.0117906  29.2589280  35.9072599  -5.2237906  14.3809280  32.4792599
  -4.8857906  13.4869280  32.5292599  -4.5727906  14.8559280  31.9622599
  -4.1797906  12.2289280  38.3132599  -3.3667906  11.7309280  38.2282599
  -4.2267906  12.4559280  39.2422599   6.4052094  20.1459280  36.8952599
   6.5732094  19.5899280  37.6562599   6.7632094  20.9999280  37.1382599
  -2.7447906  15.0379280  31.2912599  -2.4017906  14.1759280  31.0562599
  -1.9657906  15.5729280  31.4432599   3.3292094  20.8339280  38.2412599
   2.6202094  20.6689280  38.8622599   4.0902094  21.0239280  38.7892599
  -4.9327906  16.0609280  34.7362599  -5.0547906  15.1119280  34.7062599
  -5.7967906  16.4069280  34.9622599  -1.2487906  24.1189280  36.0342599
  -0.5707906  23.9389280  36.6852599  -1.4257906  23.2689280  35.6302599
   7.0372094  11.0299280  39.3222599   6.4992094  11.3599280  40.0412599
   6.9072094  11.6619280  38.6152599   5.8852094  13.4169280  34.5872599
   6.4162094  14.1009280  34.9962599   6.4582094  12.6509280  34.5622599
 -20.2957906  12.2269280  39.6082599 -20.4727906  13.1659280  39.6512599
 -20.8077906  11.9189280  38.8602599 -12.9227906  20.2419280  27.7932599
 -12.6117906  19.6599280  28.4862599 -12.6897906  19.7919280  26.9802599
 -20.5587906  24.3979280  35.3262599 -21.3197906  23.9049280  35.0212599
 -19.8057906  23.8879280  35.0272599  -2.6767906  24.6559280  39.5922599
  -2.8907906  23.7409280  39.4132599  -2.2357906  24.6379280  40.4422599
  -2.8097906  17.6399280  34.0232599  -2.0117906  17.1119280  34.0702599
  -3.5087906  17.0409280  34.2872599  -0.8857906  26.8949280  38.0382599
  -1.1267906  27.6539280  38.5692599  -1.6067906  26.2769280  38.1602599
  -2.1527906  29.0899280  39.1672599  -2.0057906  29.3689280  40.0702599
  -2.2477906  29.9059280  38.6752599 -22.6917906  15.6099280  35.6502599
 -21.8117906  15.7439280  35.2962599 -23.1347906  16.4479280  35.5152599
 -17.5347906  19.9919280  18.1622599 -17.9677906  19.3589280  18.7362599
 -17.2377906  20.6849280  18.7512599 -16.7607906  14.4749280  23.6042599
 -16.0507906  14.3619280  22.9722599 -16.8327906  15.4219280  23.7182599
   3.0652094  22.6549280  35.9962599   3.1072094  22.0329280  36.7232599
   2.5412094  23.3809280  36.3332599   4.1562094  34.5589280  32.7892599
   5.0782094  34.6499280  33.0332599   3.9932094  35.2879280  32.1912599
 -22.3037906  18.2019280  24.5122599 -22.9857906  18.2169280  25.1842599
 -22.5877906  17.5249280  23.8972599  -1.4617906  32.0199280  37.7692599
  -0.7607906  32.5739280  37.4252599  -1.9927906  32.6089280  38.3042599
 -19.6757906  24.3449280  28.0562599 -19.5247906  25.1719280  28.5132599
 -20.4887906  24.4839280  27.5702599 -22.9387906  17.6639280  38.0642599
 -22.3727906  17.9329280  37.3402599 -22.3597906  17.1849280  38.6572599
  -9.0707906  14.8889280  26.2532599  -8.5677906  15.2839280  25.5412599
  -9.3847906  15.6339280  26.7662599   5.3752094  20.9529280  39.9632599
   6.2252094  21.3919280  39.9592599   5.3922094  20.4039280  40.7472599
 -18.8987906  22.7519280  30.7102599 -19.4887906  23.4819280  30.8952599
 -18.9427906  22.6429280  29.7602599  -3.4597906  17.5309280  30.5792599
  -3.8427906  18.3339280  30.9322599  -3.7007906  16.8519280  31.2102599
 -17.3517906  22.7529280  36.7512599 -17.9617906  22.1179280  36.3742599
 -16.5447906  22.2579280  36.8882599 -16.6367906  12.0819280  34.4752599
 -15.7807906  11.8699280  34.8482599 -17.1857906  12.2809280  35.2332599
 -22.1617906  22.5599280  34.1392599 -23.1007906  22.3839280  34.1952599
 -21.8317906  21.9069280  33.5222599 -20.7587906  20.9409280  32.2862599
 -20.0347906  21.4849280  31.9772599 -21.4937906  21.1749280  31.7202599
 -18.1737906  16.6419280  10.9752599 -18.2627906  17.5779280  11.1542599
 -17.2327906  16.4759280  11.0302599 -19.2337906  13.7299280  25.3372599
 -18.5257906  14.1829280  24.8782599 -19.9657906  14.3469280  25.3182599
  -8.4447906  17.0309280  31.1052599  -8.3857906  17.9829280  31.1822599
  -8.4147906  16.8639280  30.1632599 -20.3787906  37.8839280  31.9362599
 -21.0457906  37.1989280  31.9182599 -20.6687906  38.5189280  31.2812599
 -21.1027906  12.9949280  27.9762599 -21.5447906  12.5489280  27.2532599
 -21.7317906  13.6529280  28.2722599 -19.0267906  11.5749280  16.1552599
 -18.0727906  11.6519280  16.1882599 -19.3097906  12.3199280  15.6252599
  -4.2967906  34.1369280  11.3312599  -4.1997906  35.0389280  11.6372599
  -3.6157906  34.0359280  10.6652599   1.7652094  34.6199280  30.3822599
   2.4992094  34.1699280  29.9632599   0.9892094  34.2789280  29.9362599
  -0.8417906  38.1669280  14.9042599  -1.3207906  38.9889280  15.0002599
  -0.5197906  37.9719280  15.7842599  -3.0347906  32.4339280  24.1742599
  -2.5347906  32.5769280  23.3702599  -2.4327906  31.9629280  24.7502599
  -2.4837906  32.5439280  13.4382599  -3.2077906  33.0329280  13.0492599
  -2.5627906  32.7059280  14.3782599 -21.7797906  34.0399280  24.5852599
 -22.6037906  33.6759280  24.9072599 -21.5817906  33.5279280  23.8012599
 -20.8787906  38.1239280  29.2562599 -20.5657906  37.2199280  29.2692599
 -21.3017906  38.2189280  28.4022599 -21.6567906  26.8969280  30.6542599
 -22.5417906  27.2169280  30.4802599 -21.7777906  25.9819280  30.9092599
 -20.7327906  36.7699280  14.1222599 -21.1647906  37.2109280  13.3912599
 -20.3457906  37.4799280  14.6352599  -5.3537906  28.0509280  17.5472599
  -6.2417906  27.7059280  17.6412599  -5.0917906  27.7999280  16.6612599
   2.6892094  33.7909280  39.4002599   3.5372094  33.3519280  39.3242599
   2.2312094  33.5689280  38.5892599  -2.8807906  31.9829280  16.0662599
  -3.3537906  31.1509280  16.0832599  -1.9667906  31.7419280  16.2172599
   0.2312094  30.0619280  24.1052599  -0.2437906  30.0459280  23.2742599
   1.1392094  29.8759280  23.8662599  -1.2867906  35.4599280  14.5482599
  -0.9797906  35.1389280  13.7002599  -1.0117906  36.3769280  14.5712599
  -0.2467906  31.6189280  16.8632599  -0.2987906  30.8349280  17.4102599
   0.6712094  31.6659280  16.5962599 -20.0767906  31.6779280  32.3182599
 -19.9237906  32.0469280  31.4492599 -20.2657906  32.4359280  32.8712599
 -19.7597906  35.2039280  26.1862599 -20.4007906  34.7299280  25.6572599
 -19.6967906  36.0649280  25.7732599 -21.6047906  32.8149280  39.5902599
 -22.0607906  32.0249280  39.8792599 -20.6937906  32.5409280  39.4822599
   2.8602094  29.3259280  33.8642599   3.1252094  30.1289280  33.4162599
   2.2152094  28.9269280  33.2812599  -2.8717906  34.3989280  38.9942599
  -3.7577906  34.7549280  38.9312599  -2.4307906  34.7109280  38.2042599
  -3.0997906  29.9759280  18.2052599  -3.6947906  29.3079280  17.8642599
  -2.3017906  29.4959280  18.4242599   4.6582094  34.2719280  17.1212599
   4.9452094  33.3689280  17.2512599   4.5832094  34.3659280  16.1712599
   4.3412094  33.6589280  29.4752599   4.4182094  33.0269280  28.7612599
   5.1302094  34.1959280  29.4072599  -5.7877906  31.1459280  28.2832599
  -5.9317906  30.4509280  27.6402599  -6.0367906  31.9499280  27.8282599
 -11.0177906  12.6169280  26.0802599 -11.7547906  12.8229280  26.6562599
 -10.3157906  13.1979280  26.3722599   1.8152094  38.1489280  13.8792599
   0.8682094  38.0359280  13.9552599   2.1692094  37.7399280  14.6692599
   1.3422094  36.9049280  19.2852599   2.1742094  36.4319280  19.3002599
   0.7112094  36.2919280  19.6622599   4.8172094  36.7789280  18.2002599
   4.7542094  35.8269280  18.1192599   4.7422094  36.9439280  19.1402599
   3.9052094  31.6729280  27.7312599   4.2342094  31.9659280  26.8812599
   3.6282094  30.7689280  27.5832599  -4.7107906  37.7699280  24.4632599
  -3.9877906  38.3929280  24.5312599  -4.2917906  36.9389280  24.2412599
 -21.9297906  24.3289280  31.6102599 -21.7927906  24.0829280  32.5252599
 -22.7697906  23.9319280  31.3782599   6.8992094  35.4709280  28.7662599
   6.7382094  35.9349280  27.9442599   6.4512094  35.9949280  29.4292599
 -15.6787906  32.0659280  28.1312599 -15.8527906  32.8779280  27.6572599
 -15.3297906  31.4699280  27.4682599 -17.9997906  29.0409280  30.9482599
 -17.9137906  29.9689280  31.1662599 -17.9257906  28.5889280  31.7882599
   2.4902094  34.4459280  22.3872599   2.2392094  34.0329280  21.5612599
   1.8642094  35.1619280  22.4972599  -7.3517906  31.8979280  13.6502599
  -6.8687906  31.7159280  12.8442599  -7.4467906  31.0429280  14.0702599
  -9.3017906  36.3549280  25.9772599  -8.3657906  36.2859280  26.1642599
  -9.5487906  35.4859280  25.6612599   2.3542094  33.5949280  12.4252599
   1.4432094  33.3039280  12.4412599   2.5752094  33.6409280  11.4952599
  -1.6587906  35.6019280  17.1622599  -1.3937906  35.3749280  16.2712599
  -1.2767906  36.4659280  17.3142599  -5.7587906  35.2969280  38.8192599
  -6.4197906  35.5449280  39.4652599  -6.2607906  34.9299280  38.0912599
  -6.7657906  12.9999280  26.3852599  -6.7317906  12.9459280  27.3402599
  -7.3597906  13.7299280  26.2082599 -19.9327906  35.8989280  22.8812599
 -20.7887906  35.4739280  22.8292599 -19.5447906  35.7659280  22.0172599
 -22.6417906  34.3079280  14.2562599 -22.2097906  33.7659280  13.5952599
 -21.9687906  34.9289280  14.5342599  -1.9917906  34.2179280  22.1602599
  -2.2087906  34.3809280  21.2422599  -2.0167906  35.0819280  22.5702599
  -4.3197906  29.3289280  21.9542599  -4.5227906  28.6989280  21.2632599
  -4.9417906  30.0429280  21.8192599   4.7802094  37.3589280  21.0522599
   4.6392094  37.8069280  21.8862599   5.6892094  37.0629280  21.0882599
 -12.9147906  36.7599280  28.1822599 -12.2647906  36.0589280  28.1352599
 -13.7517906  36.3229280  28.0242599 -22.1897906  33.5209280  30.4402599
 -21.2617906  33.3039280  30.5272599 -22.2217906  34.1519280  29.7222599
 -10.5427906  24.8609280  39.3902599  -9.8617906  25.5329280  39.4202599
 -10.3587906  24.3679280  38.5902599   2.1272094  36.9879280  23.5082599
   2.8552094  36.5019280  23.8952599   2.5372094  37.7479280  23.0962599
   3.4482094  29.0119280  27.1472599   3.1472094  28.1719280  26.8012599
   4.3392094  28.8399280  27.4522599 -21.8917906  38.3949280  20.5622599
 -21.3937906  37.8339280  19.9662599 -22.7347906  38.5189280  20.1262599
 -22.6837906   8.7149280  16.7582599 -22.6787906   8.6429280  15.8032599
 -22.1387906   7.9869280  17.0562599  -2.7067906  34.7499280  19.5712599
  -2.4297906  34.8049280  18.6572599  -2.9337906  35.6489280  19.8082599
   0.8252094  37.6199280  37.9882599   1.0502094  37.0919280  38.7542599
   0.9022094  38.5249280  38.2902599   2.0212094  26.5709280  26.1442599
   2.3052094  25.7109280  26.4522599   1.4502094  26.8979280  26.8392599
   3.1272094  31.5129280  20.7882599   2.2282094  31.3349280  21.0632599
   3.0652094  32.3149280  20.2692599 -14.9667906  13.0899280  39.4452599
 -14.5917906  13.1749280  40.3212599 -15.4497906  12.2639280  39.4692599
 -22.2617906  31.4689280  19.0002599 -22.6267906  31.8739280  18.2142599
 -22.9557906  31.5469280  19.6552599  -1.7207906  11.2829280  38.3322599
  -1.1837906  10.7019280  38.8712599  -1.1067906  11.9389280  38.0012599
  -3.7187906  33.6919280  28.2452599  -3.9677906  33.9569280  29.1302599
  -4.2937906  32.9529280  28.0452599   1.8762094  34.9319280  34.6032599
   2.6482094  34.8439280  34.0442599   1.2082094  34.3939280  34.1772599
  -3.0237906  35.7489280  33.9072599  -2.2737906  35.5789280  33.3372599
  -3.2097906  36.6809280  33.7862599   3.2662094  37.0919280  15.9412599
   3.7052094  37.3819280  16.7412599   3.7182094  36.2829280  15.7002599
  -0.8137906  35.9829280  11.6322599   0.1112094  36.0479280  11.3952599
  -1.0847906  35.1249280  11.3052599   5.8902094  31.6719280  30.9232599
   6.7442094  32.0729280  30.7642599   5.2692094  32.2419280  30.4682599
  -3.6287906  30.8279280  29.9872599  -3.9367906  30.4879280  30.8272599
  -4.4167906  30.8829280  29.4472599   6.1132094  27.7909280  39.7272599
   5.6812094  27.4659280  38.9372599   6.9322094  27.2989280  39.7732599
  -0.3597906  31.2679280  35.0012599   0.4772094  31.7329280  35.0212599
  -0.8917906  31.7579280  34.3742599  -8.1987906  32.7459280  39.4822599
  -9.0567906  33.1689280  39.5032599  -7.7237906  33.1999280  38.7862599
 -21.3287906  28.9489280  36.7352599 -20.8217906  28.3199280  36.2212599
 -21.9347906  29.3399280  36.1052599   3.5882094  18.5649280  40.2842599
   3.5682094  19.1159280  41.0662599   3.4402094  19.1729280  39.5592599
   6.2872094  34.8679280  36.6002599   5.7112094  34.9219280  37.3622599
   5.7792094  34.3829280  35.9492599   4.6162094  33.0649280  35.1782599
   3.8012094  32.9769280  34.6852599   4.5552094  32.3989280  35.8632599
   3.8152094  13.6049280  40.7702599   2.9912094  13.2079280  40.4882599
   3.8102094  14.4749280  40.3712599 -19.9697906  34.1479280  33.7632599
 -19.0437906  33.9329280  33.6482599 -19.9647906  35.0039280  34.1922599
   1.0642094  30.2019280  37.7942599   1.7502094  30.6829280  37.3322599
   0.2802094  30.7409280  37.6862599   3.2512094  25.9739280  39.4852599
   3.9412094  25.3439280  39.2802599   3.6122094  26.8199280  39.2202599
   7.0932094  36.4689280  32.4802599   6.5632094  36.8179280  33.1972599
   7.2292094  35.5489280  32.7072599   4.7432094  31.7369280  39.0692599
   5.3822094  32.2369280  39.5762599   5.2462094  31.3729280  38.3412599
   4.9972094  26.3539280  37.2522599   4.5472094  26.7399280  36.5012599
   5.0582094  25.4219280  37.0422599  -1.9897906  28.8749280  35.1602599
  -1.3707906  29.6019280  35.2252599  -2.0027906  28.6539280  34.2282599
   3.3042094   9.1129280  37.1532599   3.0742094   8.5239280  36.4352599
   4.0972094   8.7329280  37.5312599   1.2852094  20.6919280  39.9992599
   0.8922094  21.5649280  39.9912599   0.5482094  20.0989280  40.1492599
 -19.0167906  11.0759280  12.1502599 -19.6537906  11.5339280  11.6012599
 -19.5437906  10.4899280  12.6922599   6.2652094  30.4459280  37.1082599
   6.9802094  29.9419280  37.4972599   6.6562094  30.8639280  36.3412599
   3.6452094  30.5389280  36.4392599   4.4872094  30.1219280  36.6222599
   3.3232094  30.0939280  35.6542599   1.4572094  37.6509280  35.2772599
   1.4742094  37.3849280  36.1962599   1.6572094  36.8509280  34.7922599
  -3.4157906  31.2639280  35.8522599  -3.3047906  30.5419280  35.2332599
  -2.7007906  31.1559280  36.4782599  -2.0747906  12.3379280  30.8612599
  -1.9497906  12.3879280  29.9142599  -1.2037906  12.4889280  31.2272599
   6.2072094  37.2489280  34.9472599   7.0492094  37.5999280  35.2392599
   6.0332094  36.5179280  35.5402599  -5.9767906   9.6459280  37.7042599
  -5.3367906   9.0309280  38.0642599  -5.6897906  10.5029280  38.0192599
   3.3452094  34.8399280  14.5232599   2.8542094  35.6489280  14.6662599
   2.9972094  34.4909280  13.7032599  -5.7727906  36.8479280  35.4322599
  -5.2317906  36.9419280  36.2162599  -5.6377906  35.9419280  35.1552599
   0.8072094  33.3889280  32.6902599   0.0392094  33.0349280  32.2412599
   1.3372094  33.7739280  31.9922599  -1.5597906  31.9529280  31.4022599
  -2.2947906  31.5179280  30.9712599  -1.9567906  32.4289280  32.1312599
 -19.6397906  38.1339280  34.4792599 -19.9177906  37.9359280  33.5852599
 -19.2037906  38.9839280  34.4132599 -20.1087906  29.5969280  11.1492599
 -20.9497906  30.0549280  11.1582599 -19.9227906  29.4569280  10.2202599
  -4.2387906  35.0089280  30.5932599  -3.4157906  35.4419280  30.8192599
  -4.8777906  35.3739280  31.2042599   1.1452094  10.1029280  33.9762599
   0.2712094  10.3819280  34.2512599   1.1882094   9.1769280  34.2152599
   5.9932094  24.5619280  39.6532599   6.6022094  25.2909280  39.5382599
   6.5542094  23.7909280  39.7362599  -1.7937906  30.3919280  27.9602599
  -2.1717906  30.4969280  28.8342599  -1.3557906  31.2249280  27.7862599
 -17.7737906  28.6959280  33.9322599 -17.3797906  29.2419280  34.6122599
 -18.5797906  28.3639280  34.3282599   1.7532094  36.3489280  40.2022599
   2.1152094  35.5039280  39.9362599   2.3692094  36.6789280  40.8562599
 -20.7487906  10.8779280  30.2542599 -20.7767906  11.5369280  29.5602599
 -21.4207906  10.2419280  30.0092599  -6.7847906  37.6959280  29.2042599
  -7.7217906  37.6089280  29.0272599  -6.6767906  37.3609280  30.0942599
  -2.4267906  32.6439280  33.8182599  -2.7297906  33.5429280  33.9442599
  -2.9737906  32.1219280  34.4052599 -21.9437906  14.6529280  11.5192599
 -21.6147906  15.1069280  10.7432599 -21.1997906  14.6339280  12.1202599
 -18.2497906  34.2979280  36.5882599 -19.1847906  34.4639280  36.7052599
 -18.1117906  33.4269280  36.9622599 -12.8117906  34.6689280  32.5832599
 -11.9847906  34.1979280  32.6882599 -12.5517906  35.5809280  32.4472599
  -9.6987906  37.6829280  28.7182599  -9.3917906  37.0939280  28.0292599
 -10.4677906  38.1109280  28.3422599  -3.4107906  25.4399280  44.0762599
  -3.5057906  24.5619280  44.4462599  -4.1757906  25.5449280  43.5112599
 -15.8487906  35.7099280  44.7472599 -16.5537906  35.1529280  45.0772599
 -15.8237906  36.4489280  45.3552599 -16.9337906  15.4049280  49.3152599
 -17.3987906  14.6079280  49.0622599 -16.9097906  15.9319280  48.5162599
 -22.1767906  22.5089280  49.1502599 -22.9997906  22.8289280  48.7782599
 -21.9037906  21.8079280  48.5592599 -11.5867906  19.7839280  46.3182599
 -12.1707906  20.2339280  46.9282599 -11.1337906  19.1329280  46.8542599
  -0.7327906  17.9399280  46.9502599  -0.8217906  18.1739280  46.0262599
  -0.0737906  18.5469280  47.2882599   5.2242094  13.9989280  46.1632599
   4.2842094  14.1189280  46.0272599   5.4032094  13.1149280  45.8442599
  -4.4497906  29.7949280  41.2952599  -5.1037906  30.4849280  41.1812599
  -4.5337906  29.2529280  40.5112599 -12.1277906  24.4199280  47.2792599
 -11.6787906  25.2609280  47.3632599 -12.9357906  24.5289280  47.7812599
 -20.4237906  29.2059280  44.4602599 -19.6307906  29.7419280  44.4612599
 -20.1397906  28.3559280  44.7962599  -9.2827906  23.1139280  41.1492599
  -9.9117906  22.4129280  41.3202599  -9.7347906  23.6989280  40.5412599
 -11.0527906  31.5539280  49.1572599 -11.1227906  32.3179280  48.5862599
 -10.7367906  30.8539280  48.5852599  -8.2817906  34.4849280  42.5052599
  -7.6577906  34.4789280  41.7792599  -7.8407906  33.9999280  43.2032599
 -21.2237906  16.3039280  45.7522599 -20.8997906  15.5159280  45.3172599
 -20.4377906  16.7299280  46.0952599   5.7222094  24.0069280  48.2572599
   5.6362094  24.5849280  47.4992599   5.3752094  24.5169280  48.9892599
 -14.4587906  14.8199280  44.1162599 -13.7947906  15.3419280  43.6662599
 -14.8247906  15.4129280  44.7732599 -15.0187906  22.2059280  47.7062599
 -15.6537906  21.9449280  48.3732599 -14.4477906  21.4439280  47.6072599
  -0.3577906  12.0409280  43.2782599  -1.1307906  12.0109280  42.7142599
  -0.0147906  12.9279280  43.1672599 -11.6207906  34.7329280  42.1722599
 -11.5617906  35.6829280  42.2742599 -11.1737906  34.3809280  42.9412599
  -8.2797906  27.9619280  48.4212599  -8.7917906  27.3969280  48.9992599
  -8.9057906  28.6159280  48.1092599 -17.8957906  22.5159280  46.6682599
 -17.5697906  21.7169280  47.0832599 -18.4167906  22.9439280  47.3472599
 -19.8127906  32.1569280  45.6072599 -20.2527906  31.5669280  46.2192599
 -19.0217906  31.6859280  45.3452599 -15.4357906  37.2479280  42.2942599
 -16.1317906  36.7229280  41.8992599 -15.5257906  37.0959280  43.2352599
  -7.1227906  27.0429280  45.1632599  -6.9457906  27.0389280  44.2232599
  -6.5647906  26.3489280  45.5152599 -16.8057906   9.3159280  45.0772599
 -15.9567906   8.9069280  44.9082599 -16.6517906  10.2509280  44.9452599
 -13.4007906  17.1569280  47.1782599 -12.9117906  16.8909280  47.9572599
 -12.7937906  17.7179280  46.6952599 -14.1497906  31.5209280  46.3412599
 -13.6487906  31.1389280  47.0622599 -13.5077906  31.6459280  45.6422599
 -10.6217906  11.4629280  47.2632599 -10.2297906  11.9429280  47.9932599
  -9.9867906  10.7759280  47.0582599 -18.3227906  12.7509280  49.2252599
 -18.9937906  12.1129280  49.4652599 -18.0607906  12.5029280  48.3392599
 -10.1967906  11.1779280  43.2602599 -10.5647906  11.5479280  42.4582599
  -9.5377906  11.8149280  43.5382599  -9.2077906  18.1289280  43.7822599
  -8.7307906  17.3819280  44.1422599  -8.5917906  18.8599280  43.8452599
 -12.1317906  19.7209280  41.0892599 -11.8497906  20.4009280  40.4772599
 -12.2187906  20.1749280  41.9282599 -16.6147906  37.2219280  48.0062599
 -17.1897906  37.7579280  48.5512599 -15.8737906  37.7929280  47.8032599
  -0.6537906  20.4169280  49.3082599  -0.6097906  21.3679280  49.2162599
   0.0052094  20.0849280  48.6982599 -12.6697906  16.9799280  43.5602599
 -12.0127906  17.0409280  42.8672599 -12.2187906  17.2889280  44.3462599
 -10.2967906  17.8279280  47.6582599  -9.8887906  17.3919280  46.9092599
 -10.1947906  17.2089280  48.3812599 -14.3107906  12.5739280  49.2262599
 -13.9497906  12.8899280  48.3982599 -13.8317906  11.7639280  49.4032599
 -18.6407906  16.4759280  47.1722599 -19.2127906  16.7669280  47.8822599
 -18.4897906  17.2619280  46.6472599 -15.1667906  24.0249280  41.1752599
 -14.6747906  23.3419280  41.6302599 -14.6627906  24.8249280  41.3252599
 -13.0407906  11.3199280  46.2552599 -12.1917906  11.1709280  46.6732599
 -13.0127906  10.7909280  45.4582599  -3.0367906  25.4569280  47.4072599
  -3.1867906  26.2319280  46.8672599  -3.6827906  25.5249280  48.1102599
 -13.3177906  24.3669280  44.4882599 -13.0467906  24.2349280  45.3972599
 -12.9067906  25.1929280  44.2332599 -10.4827906  31.8749280  44.6462599
 -11.2417906  31.3589280  44.3752599  -9.7377906  31.4419280  44.2302599
 -18.9567906  36.7029280  46.7242599 -19.2797906  37.5579280  46.4392599
 -18.0727906  36.8749280  47.0462599  -3.8217906  16.7829280  46.5832599
  -2.9037906  16.8139280  46.8542599  -3.9677906  15.8709280  46.3342599
 -17.0097906  24.5139280  44.9262599 -16.2177906  24.0779280  44.6122599
 -17.1947906  24.0969280  45.7682599  -7.1777906  20.0869280  44.3372599
  -6.3577906  19.6099280  44.4602599  -7.3487906  20.4949280  45.1872599
 -13.9247906  28.8519280  42.2132599 -14.5297906  28.2139280  42.5912599
 -14.0407906  29.6379280  42.7472599  -9.3687906   8.9999280  45.7392599
  -8.5517906   8.9789280  46.2362599  -9.0947906   8.9459280  44.8232599
 -10.9517906  17.3069280  41.4322599 -11.3397906  18.1379280  41.1602599
 -10.0077906  17.4619280  41.4062599  -8.0807906  13.4659280  47.3502599
  -7.5247906  12.6899280  47.2812599  -7.5447906  14.1049280  47.8202599
  -9.1367906  20.4759280  48.9252599  -9.8547906  20.8829280  49.4112599
  -9.4217906  19.5729280  48.7882599 -19.6147906  23.7229280  48.6092599
 -20.2127906  23.8499280  47.8732599 -20.0867906  23.1429280  49.2052599
  -9.8597906  26.6269280  45.3252599  -9.9867906  26.9139280  46.2292599
  -8.9267906  26.7629280  45.1592599 -17.5237906  25.0329280  41.8582599
 -16.6147906  24.8369280  42.0872599 -17.7177906  24.4469280  41.1272599
  -4.8487906  13.2139280  40.9482599  -5.7607906  13.4819280  41.0642599
  -4.6147906  12.7949280  41.7772599 -16.7307906  20.1919280  43.7402599
 -17.5507906  20.6849280  43.7032599 -16.0927906  20.8139280  44.0892599
 -10.9327906  20.3769280  43.7542599 -11.2167906  20.3989280  44.6672599
 -10.5287906  19.5159280  43.6482599 -16.4307906  12.3139280  46.8922599
 -15.9887906  12.5969280  47.6922599 -16.0357906  12.8439280  46.1992599
  -1.8197906  25.2529280  42.1002599  -1.4627906  26.1269280  41.9412599
  -2.4077906  25.3659280  42.8462599  -4.8387906  18.6319280  44.9542599
  -4.2487906  19.3759280  45.0792599  -4.5867906  18.0089280  45.6352599
 -14.8107906  22.2369280  44.9012599 -14.1287906  22.8509280  44.6302599
 -14.8867906  22.3639280  45.8472599 -14.3067906  37.9859280  45.3342599
 -13.5527906  38.2519280  44.8072599 -14.1507906  38.3819280  46.1912599
  -4.9557906  14.2329280  46.9342599  -4.0387906  14.0479280  46.7322599
  -5.4447906  13.8429280  46.2102599 -14.9887906  18.1409280  42.5162599
 -14.1137906  17.8309280  42.7482599 -15.4427906  18.2299280  43.3542599
   4.3202094  21.9259280  47.1902599   3.4002094  22.1599280  47.0682599
   4.7182094  22.7099280  47.5682599 -17.4367906  14.2869280  45.1542599
 -16.8747906  15.0289280  44.9312599 -17.6857906  14.4399280  46.0662599
   0.7742094  19.7119280  43.9552599  -0.1177906  20.0579280  43.9372599
   1.2992094  20.3799280  43.5142599  -5.7537906  12.7269280  44.3082599
  -5.4897906  11.8639280  44.6272599  -6.4797906  12.5489280  43.7092599
   6.0182094  15.7079280  42.9022599   6.0572094  15.4139280  43.8122599
   6.7272094  15.2329280  42.4672599 -17.1387906  32.0559280  40.6962599
 -16.7177906  32.3049280  41.5192599 -16.4287906  31.7009280  40.1622599
 -19.7847906  26.7039280  42.0472599 -19.6557906  27.6519280  42.0762599
 -18.9397906  26.3549280  41.7662599 -19.2577906  21.2179280  43.8892599
 -20.0907906  20.8499280  44.1862599 -19.3507906  22.1609280  44.0252599
 -12.6927906  10.1989280  44.0262599 -13.2427906  10.2699280  43.2452599
 -11.8387906  10.5299280  43.7482599 -15.0107906  24.9799280  47.6782599
 -15.1977906  24.0499280  47.8032599 -14.9797906  25.3409280  48.5642599
  -9.7787906  22.8379280  43.8552599  -9.3827906  23.1129280  43.0292599
 -10.2107906  22.0089280  43.6502599 -15.6017906  16.4419280  46.0002599
 -16.1707906  17.1939280  46.1652599 -14.8437906  16.5849280  46.5662599
  -1.7477906  18.0759280  42.6282599  -1.2797906  17.4529280  43.1832599
  -1.2677906  18.0669280  41.7992599 -17.9177906  27.2889280  47.1052599
 -17.5207906  28.1339280  47.3182599 -17.4037906  26.9619280  46.3672599
 -21.9347906  37.5689280  41.8312599 -21.6347906  38.0809280  41.0802599
 -21.7747906  36.6589280  41.5812599  -6.6607906  25.2709280  47.5272599
  -7.3657906  24.9769280  46.9492599  -7.1027906  25.5129280  48.3412599
 -13.0967906  25.6999280  41.2582599 -12.3317906  25.3249280  40.8222599
 -12.7347906  26.1969280  41.9922599  -8.4257906  29.3709280  41.6652599
  -9.2957906  29.6559280  41.3862599  -7.9637906  29.1769280  40.8502599
   4.1172094  20.3439280  42.4752599   4.1082094  20.9189280  43.2412599
   4.8212094  19.7199280  42.6502599  -6.9787906  11.7469280  42.1072599
  -6.4197906  10.9709280  42.0692599  -7.3237906  11.8379280  41.2192599
  -5.9137906  38.3799280  46.2922599  -6.0627906  37.6449280  46.8882599
  -6.1967906  38.0559280  45.4372599 -12.9827906  35.6649280  46.0152599
 -13.8797906  35.8829280  45.7612599 -12.4447906  35.9789280  45.2882599
 -11.7257906  34.1429280  47.9392599 -11.9187906  34.6249280  48.7422599
 -12.0527906  34.7059280  47.2372599  -8.8457906  23.9679280  46.4052599
  -8.6947906  23.0299280  46.2912599  -9.4297906  24.2059280  45.6852599
 -13.0907906  36.5059280  49.2302599 -13.3907906  36.4979280  48.3222599
 -13.6657906  37.1339280  49.6672599  -8.9527906  15.1749280  43.0842599
  -9.7447906  15.6379280  42.8082599  -9.2617906  14.5299280  43.7202599
 -12.3067906  28.3029280  46.7242599 -12.9567906  27.9499280  46.1172599
 -12.8177906  28.8139280  47.3522599  -9.7217906  13.5619280  45.2782599
  -9.1297906  13.5529280  46.0302599 -10.4147906  12.9439280  45.5112599
 -22.7747906  29.9139280  45.3132599 -21.8817906  29.5909280  45.1972599
 -23.3227906  29.2729280  44.8592599  -7.0517906  34.3179280  45.3602599
  -7.1717906  33.5359280  44.8202599  -7.8927906  34.4349280  45.8032599
 -17.0147906  29.8329280  47.3792599 -16.3587906  30.2159280  47.9612599
 -17.8307906  29.8709280  47.8782599  -5.3277906  36.1079280  48.3542599
  -6.1737906  35.7249280  48.5842599  -4.9407906  35.4849280  47.7392599
 -20.5027906  27.2229280  46.1382599 -21.1497906  27.0619280  46.8262599
 -19.6577906  27.0879280  46.5672599  -8.5067906  37.2179280  47.9862599
  -8.0567906  36.5829280  48.5422599  -8.8457906  36.6999280  47.2562599
 -16.3167906  27.3399280  42.9942599 -16.9087906  27.9549280  42.5612599
 -16.8157906  26.5249280  43.0492599 -15.5477906  31.5249280  44.0062599
 -15.2397906  32.2879280  43.5182599 -15.1667906  31.6279280  44.8782599
 -13.6457906  13.8739280  46.3622599 -13.9617906  14.1069280  45.4892599
 -13.3937906  12.9539280  46.2892599 -19.5657906  23.9199280  43.8242599
 -19.1767906  24.5779280  43.2482599 -19.0127906  23.9279280  44.6052599
 -11.5417906  37.8599280  41.3682599 -11.6687906  37.5369280  40.4762599
 -12.0867906  38.6459280  41.4182599 -16.1077906  33.3029280  47.6382599
 -15.4987906  32.8199280  47.0802599 -16.7607906  33.6549280  47.0332599
 -22.0317906  26.2139280  43.6842599 -21.4377906  26.2689280  44.4332599
 -21.5067906  26.5049280  42.9392599 -11.9067906  30.7079280  42.5592599
 -11.9417906  29.8239280  42.1932599 -12.3787906  31.2489280  41.9262599
 -22.1977906  23.1789280  43.0472599 -22.8267906  23.8899280  43.1662599
 -21.3467906  23.5789280  43.2242599  -2.7267906  11.4679280  42.0322599
  -2.3797906  10.7839280  41.4592599  -3.5877906  11.1439280  42.2972599
 -11.9467906  26.9079280  43.3782599 -12.1407906  27.8399280  43.4832599
 -11.2507906  26.7349280  44.0132599  -9.1687906   8.8789280  42.4612599
  -9.9497906   8.6559280  41.9552599  -9.1637906   9.8359280  42.4872599
 -19.6387906   9.0189280  45.1882599 -18.6837906   9.0859280  45.1822599
 -19.9347906   9.8439280  45.5722599 -13.3917906  29.8909280  48.5882599
 -13.9957906  29.9179280  49.3302599 -12.6017906  30.3289280  48.9062599
   2.6512094  33.6069280  49.1972599   1.7642094  33.8549280  48.9382599
   3.0882094  33.3859280  48.3742599  -9.5387906  34.4569280  46.1782599
  -9.7347906  34.2909280  47.1002599 -10.2997906  34.1199280  45.7062599
  -6.1467906  20.7189280  41.8112599  -6.6687906  21.4739280  41.5382599
  -6.5807906  20.4009280  42.6032599  -8.3117906  21.2879280  46.4862599
  -8.4397906  21.1099280  47.4182599  -9.1947906  21.2769280  46.1162599
  -3.7867906  23.1339280  46.2202599  -3.6337906  23.9769280  46.6462599
  -3.9907906  22.5359280  46.9392599 -10.6997906  26.7849280  48.3512599
 -11.0677906  27.0129280  49.2052599 -11.2477906  27.2539280  47.7212599
   2.4072094  23.3019280  41.9672599   2.5052094  22.5219280  41.4202599
   1.6242094  23.7369280  41.6262599  -3.9447906  36.0459280  43.9632599
  -3.0857906  35.7639280  44.2762599  -4.5597906  35.7129280  44.6162599
 -14.4547906  12.6139280  42.4742599 -14.3637906  13.2569280  43.1772599
 -15.2757906  12.1599280  42.6682599 -11.6107906  37.1989280  44.0832599
 -11.6007906  38.0299280  44.5592599 -11.2077906  37.4019280  43.2382599
 -21.1317906  36.8859280  48.1962599 -20.4627906  36.3769280  47.7402599
 -21.9167906  36.3399280  48.1582599 -21.3997906  35.1909280  41.0102599
 -20.6237906  35.5039280  40.5452599 -21.5777906  34.3319280  40.6282599
  -0.4467906  23.0659280  49.3022599  -1.0727906  23.1019280  50.0252599
   0.3252094  23.5279280  49.6302599  -9.8567906  29.8019280  46.9782599
  -9.3267906  30.2419280  46.3132599 -10.4097906  29.1969280  46.4832599
 -19.3717906  14.6169280  42.5192599 -18.8097906  15.2839280  42.1242599
 -18.8367906  14.2349280  43.2152599  -5.8007906  32.0339280  40.7132599
  -5.3457906  32.8039280  41.0542599  -6.6717906  32.3539280  40.4772599
  -4.5537906  21.0339280  48.0502599  -5.1057906  20.4059280  47.5842599
  -5.1537906  21.4859280  48.6432599 -22.6757906  11.9949280  46.4512599
 -22.8207906  11.0809280  46.2092599 -22.7397906  12.0029280  47.4062599
 -18.0647906  34.8659280  42.6952599 -17.9817906  34.1449280  43.3192599
 -18.8847906  35.2969280  42.9332599 -17.2947906  29.2999280  41.2482599
 -18.1997906  29.3389280  40.9382599 -16.9437906  30.1729280  41.0742599
 -14.0797906  33.7219280  43.3982599 -13.3597906  33.7919280  42.7722599
 -14.5197906  34.5709280  43.3532599 -17.9437906  30.4419280  45.1072599
 -17.3287906  30.7729280  44.4522599 -17.4247906  30.3709280  45.9092599
 -21.6287906  32.3039280  42.8962599 -21.1087906  31.8079280  42.2642599
 -21.1907906  32.1579280  43.7342599   3.6882094  31.8459280  44.5042599
   4.4552094  31.7319280  43.9432599   3.3402094  32.7039280  44.2632599
  -4.3257906  16.4639280  42.2212599  -3.6127906  16.8179280  42.7522599
  -4.7617906  17.2359280  41.8592599  -8.3597906  29.3459280  44.3922599
  -8.4447906  29.2029280  43.4492599  -7.7897906  28.6379280  44.6912599
  -7.0147906  37.1589280  43.8672599  -7.1507906  36.2329280  43.6672599
  -7.6827906  37.6159280  43.3562599 -13.7267906   9.6119280  41.7892599
 -14.4107906   8.9419280  41.7652599 -14.1397906  10.3899280  41.4162599
  -8.1417906  16.2319280  45.9692599  -7.4497906  16.1109280  45.3192599
  -8.4127906  15.3429280  46.1982599 -10.5697906  14.7819280  48.4912599
  -9.7487906  14.3549280  48.2482599 -11.2357906  14.3379280  47.9662599
   2.1482094  23.5529280  47.0292599   1.2592094  23.7799280  46.7552599
   2.6792094  24.3059280  46.7712599  -3.4247906  20.4599280  42.3222599
  -4.3677906  20.5549280  42.1872599  -3.2517906  19.5329280  42.1552599
   4.9482094  11.2209280  44.5632599   5.4032094  10.4539280  44.2152599
   4.2282094  11.3709280  43.9512599  -6.9427906  15.4529280  41.2742599
  -7.6097906  15.2879280  41.9412599  -6.3557906  16.0929280  41.6752599
   2.6382094  15.4059280  46.1132599   2.0732094  14.6429280  45.9922599
   2.9512094  15.6149280  45.2322599  -6.1047906  15.4419280  44.5002599
  -5.6157906  15.9509280  43.8532599  -6.0277906  14.5359280  44.2002599
   6.7202094   9.1359280  43.9902599   7.3832094   9.1989280  43.3032599
   6.3302094   8.2699280  43.8682599 -22.2537906  11.8729280  42.7202599
 -21.9087906  12.3779280  41.9842599 -23.1927906  11.8059280  42.5462599
   2.6402094  31.4369280  46.9612599   3.3512094  31.0279280  47.4552599
   3.0132094  31.6009280  46.0952599  -2.9837906  20.5979280  45.4542599
  -2.5247906  20.7579280  46.2782599  -3.2577906  21.4659280  45.1592599
 -21.1167906  22.9989280  46.2682599 -21.7387906  22.9489280  45.5412599
 -21.0507906  22.0999280  46.5892599  -1.1867906  27.9229280  41.8172599
  -0.4087906  27.5189280  42.2002599  -1.4267906  28.6149280  42.4332599
   6.4052094  32.2019280  46.4522599   6.5532094  32.7549280  45.6852599
   6.6182094  31.3169280  46.1552599   2.9242094  27.5819280  48.7942599
   2.0372094  27.5639280  49.1532599   3.3742094  26.8599280  49.2312599
  -6.1587906  18.0049280  47.7142599  -6.5267906  17.5379280  46.9632599
  -5.2547906  17.6969280  47.7692599 -18.0197906  34.2489280  45.8622599
 -18.4597906  35.0729280  46.0742599 -18.7327906  33.6309280  45.7022599
 -22.7817906  14.7709280  47.9032599 -23.3597906  14.3299280  47.2792599
 -22.1037906  15.1729280  47.3592599 -10.7717906  12.2249280  40.9232599
 -11.3637906  12.9479280  40.7162599 -10.0967906  12.2659280  40.2452599
   0.1592094  38.2069280  47.2942599  -0.4947906  38.5439280  47.9062599
   0.8312094  37.8149280  47.8532599   7.2192094  17.7919280  47.9612599
   6.2832094  17.6899280  48.1332599   7.3592094  17.3469280  47.1262599
 -20.1757906  17.3629280  49.2482599 -19.7527906  17.5649280  50.0832599
 -21.0417906  17.7639280  49.3152599 -16.7467906  11.9409280  43.9492599
 -17.0997906  12.8049280  44.1632599 -17.4367906  11.5219280  43.4342599
  -2.6497906  11.6849280  47.7882599  -2.0237906  11.1189280  48.2412599
  -3.3837906  11.7659280  48.3962599 -16.9257906  18.7169280  45.9782599
 -17.1767906  19.2729280  46.7162599 -16.9397906  19.3019280  45.2212599
  -6.8607906  24.3809280  41.2892599  -7.7427906  24.0429280  41.4422599
  -6.4217906  23.6889280  40.7942599  -0.6477906  16.2039280  49.2492599
   0.2662094  15.9199280  49.2172599  -0.6847906  16.9599280  48.6632599
   1.5742094  19.3339280  47.8522599   1.8822094  19.7809280  48.6402599
   2.2862094  19.4419280  47.2212599   1.6182094  16.6689280  40.7802599
   2.1872094  17.2689280  40.2982599   2.1372094  16.4049280  41.5402599
  -2.3667906  14.1609280  46.5652599  -2.1227906  13.3749280  47.0532599
  -1.5317906  14.5359280  46.2822599   0.2282094  34.1349280  48.3622599
  -0.5957906  34.5509280  48.1092599   0.2462094  33.3159280  47.8672599
 -21.6087906  26.7679280  48.7732599 -21.0257906  26.8959280  49.5222599
 -22.3987906  26.3779280  49.1472599   1.9752094  10.5509280  46.5132599
   1.3712094   9.8079280  46.5262599   2.8452094  10.1519280  46.5182599
   4.9532094  22.0349280  44.4612599   4.9262094  22.2779280  45.3862599
   5.0882094  22.8629280  43.9992599   1.6922094  12.2219280  48.9512599
   1.8532094  11.5619280  48.2772599   2.5562094  12.3989280  49.3252599
   5.0792094  24.3959280  42.4282599   4.2502094  23.9309280  42.3092599
   5.4572094  24.4399280  41.5502599 -18.4067906  19.3059280  41.6622599
 -19.1127906  19.8789280  41.9612599 -17.6887906  19.4699280  42.2742599
   4.4252094  13.4059280  48.6752599   4.5782094  14.3269280  48.8882599
   4.7482094  13.3109280  47.7792599  -6.0267906  26.8569280  42.2952599
  -6.0907906  25.9659280  41.9512599  -5.3997906  27.2919280  41.7182599
 -14.2987906  27.3609280  45.3082599 -14.3677906  26.4309280  45.5242599
 -14.9387906  27.4929280  44.6092599 -21.8977906  20.6339280  44.1272599
 -22.0457906  21.2959280  43.4522599 -22.5677906  19.9699280  43.9632599
   0.2082094  16.8699280  44.1192599   0.4022094  17.8059280  44.0642599
   0.6252094  16.5859280  44.9332599  -4.4157906  10.2029280  45.1212599
  -4.6407906   9.4679280  45.6912599  -3.4597906  10.2429280  45.1482599
 -21.8337906  20.2199280  47.0802599 -22.0067906  20.0049280  46.1632599
 -21.9747906  19.3979280  47.5502599   0.2752094  14.4809280  42.9002599
   0.3052094  15.3989280  43.1692599  -0.2357906  14.4839280  42.0912599
  -3.3827906  37.4539280  41.4832599  -2.4257906  37.4459280  41.4772599
  -3.6227906  36.9339280  42.2502599 -14.8897906   9.3649280  47.6752599
 -14.4267906   9.8399280  48.3652599 -15.2007906  10.0479280  47.0812599
   3.2502094  14.6379280  43.4872599   3.9632094  14.9119280  42.9102599
   2.6632094  14.1369280  42.9212599   2.5992094  29.2509280  42.1462599
   2.6872094  29.4359280  41.2112599   3.4112094  28.8009280  42.3792599
   6.5922094  18.2129280  41.8302599   6.9702094  18.0529280  40.9662599
   6.0752094  17.4279280  42.0152599  -1.0487906  21.7969280  42.9982599
  -1.0387906  22.1429280  42.1062599  -1.8567906  21.2859280  43.0482599
   5.2182094  34.2059280  40.8152599   4.8392094  34.8199280  40.1852599
   5.9782094  34.6669280  41.1702599   5.9472094  36.6199280  43.6622599
   6.0632094  35.7209280  43.9702599   6.6652094  36.7579280  43.0452599
  -0.3797906  32.9069280  41.4332599  -1.1557906  32.8349280  41.9892599
  -0.3067906  32.0509280  41.0112599  -3.2557906  27.6949280  45.4062599
  -2.9847906  26.9369280  44.8892599  -3.2407906  28.4249280  44.7872599
   4.1272094  19.0069280  46.1622599   4.4842094  19.8719280  46.3602599
   4.7302094  18.6409280  45.5142599 -21.0987906  13.1839280  44.8412599
 -21.4197906  12.7669280  44.0412599 -21.7267906  12.9249280  45.5152599
   3.8992094  37.3299280  41.8382599   4.7192094  36.9789280  42.1852599
   3.5192094  37.8189280  42.5682599   1.3632094  26.9449280  42.3802599
   1.7212094  27.8099280  42.1792599   2.0152094  26.5429280  42.9552599
   5.0762094  11.3749280  41.4032599   4.3262094  10.8019280  41.5642599
   4.7582094  12.2519280  41.6142599   1.1882094  13.1429280  45.6852599
   1.0722094  12.9589280  44.7532599   1.4352094  12.3009280  46.0672599
 -17.5347906  19.9919280  48.1622599 -17.9677906  19.3589280  48.7362599
 -17.2377906  20.6849280  48.7512599   4.6612094  16.7319280  47.9912599
   4.2662094  17.4919280  47.5632599   4.6402094  16.0449280  47.3252599
 -18.1737906  16.6419280  40.9752599 -18.2627906  17.5779280  41.1542599
 -17.2327906  16.4759280  41.0302599 -19.0267906  11.5749280  46.1552599
 -18.0727906  11.6519280  46.1882599 -19.3097906  12.3199280  45.6252599
  -4.2967906  34.1369280  41.3312599  -4.1997906  35.0389280  41.6372599
  -3.6157906  34.0359280  40.6652599  -0.2657906  24.0129280  44.9022599
  -0.9237906  24.5239280  44.4302599  -0.3227906  23.1369280  44.5212599
  -0.8417906  38.1669280  44.9042599  -1.3207906  38.9889280  45.0002599
  -0.5197906  37.9719280  45.7842599  -6.5757906  11.0289280  47.6502599
  -6.3147906  10.1529280  47.3672599  -5.7557906  11.4559280  47.8962599
  -2.4837906  32.5439280  43.4382599  -3.2077906  33.0329280  43.0492599
  -2.5627906  32.7059280  44.3782599   4.3362094  29.8509280  48.7402599
   4.2042094  30.4349280  49.4872599   3.5532094  29.3009280  48.7232599
  -1.6987906  10.5469280  45.3532599  -1.7017906  11.0959280  46.1382599
  -1.2517906  11.0759280  44.6922599 -20.7327906  36.7699280  44.1222599
 -21.1647906  37.2109280  43.3912599 -20.3457906  37.4799280  44.6352599
  -5.3537906  28.0509280  47.5472599  -6.2417906  27.7059280  47.6412599
  -5.0917906  27.7999280  46.6612599  -2.8807906  31.9829280  46.0662599
  -3.3537906  31.1509280  46.0832599  -1.9667906  31.7419280  46.2172599
  -1.2867906  35.4599280  44.5482599  -0.9797906  35.1389280  43.7002599
  -1.0117906  36.3769280  44.5712599  -0.2467906  31.6189280  46.8632599
  -0.2987906  30.8349280  47.4102599   0.6712094  31.6659280  46.5962599
   1.2992094  30.2619280  44.3492599   1.9442094  30.8849280  44.6832599
   1.6242094  30.0209280  43.4822599   2.5102094  24.9559280  44.3442599
   2.6172094  24.2999280  43.6552599   1.6762094  24.7339280  44.7592599
  -3.0997906  29.9759280  48.2052599  -3.6947906  29.3079280  47.8642599
  -2.3017906  29.4959280  48.4242599   4.6582094  34.2719280  47.1212599
   4.9452094  33.3689280  47.2512599   4.5832094  34.3659280  46.1712599
   2.7032094  10.5769280  42.8882599   1.8842094  11.0699280  42.8432599
   2.4662094   9.7549280  43.3172599   5.0252094  24.9139280  45.5752599
   4.3522094  24.8809280  44.8952599   5.4142094  25.7849280  45.4862599
   1.8152094  38.1489280  43.8792599   0.8682094  38.0359280  43.9552599
   2.1692094  37.7399280  44.6692599   1.3422094  36.9049280  49.2852599
   2.1742094  36.4319280  49.3002599   0.7112094  36.2919280  49.6622599
   4.8172094  36.7789280  48.2002599   4.7542094  35.8269280  48.1192599
   4.7422094  36.9439280  49.1402599   5.8302094  31.8529280  42.7462599
   6.7342094  32.1579280  42.8142599   5.4172094  32.4599280  42.1322599
  -7.3517906  31.8979280  43.6502599  -6.8687906  31.7159280  42.8442599
  -7.4467906  31.0429280  44.0702599   2.3542094  33.5949280  42.4252599
   1.4432094  33.3039280  42.4412599   2.5752094  33.6409280  41.4952599
  -1.6587906  35.6019280  47.1622599  -1.3937906  35.3749280  46.2712599
  -1.2767906  36.4659280  47.3142599   5.8792094  27.6369280  44.4762599
   6.7472094  27.2589280  44.3312599   5.3492094  27.3039280  43.7522599
   4.5072094  27.3259280  42.1562599   5.0002094  27.6109280  41.3862599
   4.5342094  26.3699280  42.1182599 -22.6417906  34.3079280  44.2562599
 -22.2097906  33.7659280  43.5952599 -21.9687906  34.9289280  44.5342599
  -0.9057906  28.7009280  48.9002599  -1.0207906  27.7569280  49.0032599
  -0.4007906  28.7949280  48.0932599   4.5442094   9.6159280  46.8812599
   4.8182094  10.0989280  46.1012599   5.2012094   8.9269280  46.9802599
   6.6922094  18.0449280  44.5532599   6.4242094  17.8769280  43.6502599
   7.5262094  17.5849280  44.6462599 -22.6837906   8.7149280  46.7582599
 -22.6787906   8.6429280  45.8032599 -22.1387906   7.9869280  47.0562599
  -5.0097906   9.9339280  42.6292599  -4.9947906   9.7439280  43.5672599
  -4.8167906   9.0939280  42.2112599  -1.5277906  29.8769280  43.8172599
  -0.6217906  30.0379280  44.0802599  -1.8837906  30.7469280  43.6402599
 -22.2617906  31.4689280  49.0002599 -22.6267906  31.8739280  48.2142599
 -22.9557906  31.5469280  49.6552599   3.2662094  37.0919280  45.9412599
   3.7052094  37.3819280  46.7412599   3.7182094  36.2829280  45.7002599
  -0.8137906  35.9829280  41.6322599   0.1112094  36.0479280  41.3952599
  -1.0847906  35.1249280  41.3052599  -5.1997906  29.1809280  43.8382599
  -5.3977906  28.3299280  43.4462599  -5.0397906  29.7569280  43.0912599
 -19.0167906  11.0759280  42.1502599 -19.6537906  11.5339280  41.6012599
 -19.5437906  10.4899280  42.6922599   3.3452094  34.8399280  44.5232599
   2.8542094  35.6489280  44.6662599   2.9972094  34.4909280  43.7032599
 -20.1087906  29.5969280  41.1492599 -20.9497906  30.0549280  41.1582599
 -19.9227906  29.4569280  40.2202599   0.7802094  28.8819280  46.7172599
   1.6422094  28.4829280  46.8362599   0.8112094  29.2659280  45.8412599
  -0.4967906   9.0389280  40.6342599   0.0362094   8.7619280  41.3792599
   0.1392094   9.2529280  39.9512599 -21.9437906  14.6529280  41.5192599
 -21.6147906  15.1069280  40.7432599 -21.1997906  14.6339280  42.1202599
  -1.5247906  43.6989280  10.5452599  -2.2717906  43.3899280  11.0582599
  -1.8927906  44.3619280   9.9612599  -1.6877906  39.5849280   2.3492599
  -1.8477906  38.7359280   1.9372599  -1.1777906  40.0739280   1.7032599
 -16.9337906  45.4049280 -10.6847401 -17.3987906  44.6079280 -10.9377401
 -16.9097906  45.9319280 -11.4837401 -13.7487906  47.1179280  -1.5597401
 -14.3547906  46.6849280  -0.9577401 -13.4187906  46.4119280  -2.1157401
 -20.2797906  45.5989280   9.4612599 -19.5387906  46.0109280   9.9072599
 -19.9497906  45.3959280   8.5862599   5.2242094  43.9989280 -13.8367401
   4.2842094  44.1189280 -13.9727401   5.4032094  43.1149280 -14.1557401
  -4.3807906  43.2929280   5.6602599  -4.6977906  42.9499280   6.4952599
  -4.4407906  42.5519280   5.0572599 -21.2237906  46.3039280 -14.2477401
 -20.8997906  45.5159280 -14.6827401 -20.4377906  46.7299280 -13.9047401
 -18.4347906  40.1309280  -2.7477401 -19.3657906  40.2679280  -2.9217401
 -18.0447906  40.0069280  -3.6127401 -11.7937906  40.6169280  -1.2397401
 -12.0557906  41.5379280  -1.2467401 -11.1207906  40.5639280  -0.5617401
  -7.6577906  39.1159280 -10.5137401  -8.0477906  39.8639280 -10.9657401
  -7.7227906  38.3959280 -11.1407401 -14.4587906  44.8199280 -15.8837401
 -13.7947906  45.3419280 -16.3337401 -14.8247906  45.4129280 -15.2267401
 -13.7267906  41.2429280  -7.0847401 -13.5467906  41.6989280  -7.9067401
 -13.0397906  41.5419280  -6.4877401  -0.3577906  42.0409280 -16.7217401
  -1.1307906  42.0109280 -17.2857401  -0.0147906  42.9279280 -16.8327401
 -15.6047906  46.6389280  10.4662599 -15.4527906  47.1779280  11.2422599
 -14.7477906  46.5769280  10.0452599 -18.1257906  42.0469280  -7.0387401
 -18.9787906  42.3859280  -7.3127401 -17.5817906  42.8269280  -6.9317401
  -7.2417906  42.9379280   3.8222599  -6.6897906  43.5789280   3.3742599
  -7.5457906  42.3549280   3.1272599 -10.8707906  43.3669280  -0.9547401
 -10.0017906  43.7529280  -1.0617401 -11.0467906  43.4279280  -0.0157401
 -13.4217906  44.4339280  -5.8257401 -14.3447906  44.2569280  -5.6447401
 -13.2677906  44.0459280  -6.6867401 -10.0857906  43.1779280  -6.3507401
  -9.2567906  42.7119280  -6.4627401 -10.4427906  42.8369280  -5.5297401
 -11.5347906  47.0879280 -10.0357401 -11.4717906  46.3789280  -9.3947401
 -12.1397906  47.7149280  -9.6417401 -16.8057906  39.3159280 -14.9227401
 -15.9567906  38.9069280 -15.0917401 -16.6517906  40.2509280 -15.0547401
 -10.6217906  41.4629280 -12.7367401 -10.2297906  41.9429280 -12.0067401
  -9.9867906  40.7759280 -12.9417401 -19.0197906  44.3649280  -0.8397401
 -18.2767906  43.8299280  -1.1177401 -19.7707906  43.9899280  -1.3007401
 -15.5477906  43.9229280  -8.6157401 -16.1627906  44.5009280  -9.0677401
 -15.1717906  43.3819280  -9.3097401 -18.3227906  42.7509280 -10.7747401
 -18.9937906  42.1129280 -10.5347401 -18.0607906  42.5029280 -11.6607401
 -10.1967906  41.1779280 -16.7397401 -10.5647906  41.5479280 -17.5417401
  -9.5377906  41.8149280 -16.4617401  -7.1737906  45.0479280 -10.3987401
  -7.1927906  45.0479280  -9.4417401  -6.2717906  45.2819280 -10.6197401
 -21.2367906  40.2729280  -7.0067401 -21.1427906  39.8339280  -7.8517401
 -21.0317906  41.1899280  -7.1877401 -12.6697906  46.9799280 -16.4397401
 -12.0127906  47.0409280 -17.1327401 -12.2187906  47.2889280 -15.6537401
 -12.8397906  40.0569280 -10.2197401 -11.9267906  40.2199280 -10.4567401
 -12.7967906  39.6909280  -9.3367401 -18.3427906  45.4269280   1.7092599
 -18.4367906  45.1529280   0.7962599 -18.3527906  46.3829280   1.6752599
  -5.4787906  39.7509280  -2.0137401  -5.6667906  40.6009280  -1.6157401
  -6.2207906  39.1999280  -1.7657401 -14.3107906  42.5739280 -10.7737401
 -13.9497906  42.8899280 -11.6017401 -13.8317906  41.7639280 -10.5967401
 -18.6407906  46.4759280 -12.8277401 -19.2127906  46.7669280 -12.1177401
 -18.4897906  47.2619280 -13.3527401 -13.0407906  41.3199280 -13.7447401
 -12.1917906  41.1709280 -13.3267401 -13.0127906  40.7909280 -14.5417401
  -9.8207906  44.5149280   1.5192599  -9.5457906  45.4289280   1.4482599
  -9.3577906  44.1849280   2.2892599  -7.8057906  45.5529280   8.6622599
  -7.5807906  45.4779280   9.5892599  -8.6627906  45.1329280   8.5882599
   6.2582094  40.8039280  -5.8057401   6.3772094  41.1589280  -4.9247401
   7.1472094  40.6629280  -6.1307401 -20.3427906  40.7049280  -9.8997401
 -20.8917906  41.4429280 -10.1667401 -20.9307906  39.9499280  -9.9187401
 -14.7927906  39.4869280  -5.3227401 -14.6257906  40.2399280  -5.8897401
 -14.2277906  39.6299280  -4.5617401  -3.8217906  46.7829280 -13.4167401
  -2.9037906  46.8139280 -13.1457401  -3.9677906  45.8709280 -13.6657401
  -9.3687906  38.9999280 -14.2607401  -8.5517906  38.9789280 -13.7637401
  -9.0947906  38.9459280 -15.1767401  -8.0807906  43.4659280 -12.6497401
  -7.5247906  42.6899280 -12.7187401  -7.5447906  44.1049280 -12.1797401
 -18.3807906  38.4059280 -10.2337401 -17.8587906  38.7649280  -9.5167401
 -19.1047906  39.0239280 -10.3367401   5.9892094  45.1879280  -4.2687401
   5.7822094  44.7759280  -5.1067401   5.1652094  45.5869280  -3.9877401
 -20.6187906  40.8689280  -4.3657401 -20.8267906  40.4509280  -5.2017401
 -20.0537906  41.6059280  -4.6007401  -2.4587906  39.6279280  -4.9917401
  -1.5677906  39.5009280  -5.3177401  -2.4847906  40.5449280  -4.7167401
 -16.8517906  39.7319280  -8.5467401 -16.1037906  40.3269280  -8.5027401
 -17.6107906  40.2859280  -8.3627401  -4.8487906  43.2139280 -19.0517401
  -5.7607906  43.4819280 -18.9357401  -4.6147906  42.7949280 -18.2227401
 -16.4307906  42.3139280 -13.1077401 -15.9887906  42.5969280 -12.3077401
 -16.0357906  42.8439280 -13.8007401 -12.2797906  43.2729280  -8.3007401
 -12.3657906  43.9439280  -8.9787401 -11.4327906  43.4509280  -7.8927401
  -4.9557906  44.2329280 -13.0657401  -4.0387906  44.0479280 -13.2677401
  -5.4447906  43.8429280 -13.7897401   2.0082094  45.8659280 -10.7757401
   2.1182094  45.1669280 -11.4207401   2.6862094  46.5039280 -10.9957401
  -6.4057906  42.0649280  -0.3377401  -5.7027906  42.7149280  -0.3407401
  -6.6157906  41.9429280   0.5882599 -11.1677906  46.5629280   4.2212599
 -10.8927906  45.9299280   4.8852599 -10.8817906  47.4089280   4.5652599
  -9.3247906  46.7959280  -1.6037401 -10.2407906  46.9089280  -1.3477401
  -9.0947906  47.6159280  -2.0407401 -17.4367906  44.2869280 -14.8457401
 -16.8747906  45.0289280 -15.0687401 -17.6857906  44.4399280 -13.9337401
  -5.7537906  42.7269280 -15.6917401  -5.4897906  41.8639280 -15.3727401
  -6.4797906  42.5489280 -16.2907401 -13.5127906  43.1849280  -2.7067401
 -14.3347906  43.2019280  -3.1967401 -13.7817906  43.1459280  -1.7887401
   6.0182094  45.7079280 -17.0977401   6.0572094  45.4139280 -16.1877401
   6.7272094  45.2329280 -17.5327401  -9.9807906  44.5319280   6.4702599
 -10.5907906  45.2359280   6.6882599 -10.5227906  43.8679280   6.0442599
  -4.9757906  44.2369280  -1.0337401  -4.0727906  44.0559280  -1.2967401
  -5.0267906  45.1919280  -0.9907401 -17.1487906  46.6109280  -1.1337401
 -16.5497906  46.3149280  -0.4477401 -17.6237906  45.8219280  -1.3937401
 -16.9017906  44.6999280   3.7902599 -16.9487906  43.7439280   3.7752599
 -17.5547906  44.9829280   3.1512599 -10.7327906  40.7239280   6.2692599
 -10.9177906  40.7779280   7.2062599 -11.1377906  41.5079280   5.8982599
  -2.6967906  42.2729280  -4.3587401  -2.2047906  42.9369280  -4.8417401
  -3.5487906  42.2419280  -4.7937401 -17.1167906  44.9969280   8.5792599
 -16.5397906  45.2199280   7.8492599 -16.5827906  45.1429280   9.3602599
 -12.6927906  40.1989280 -15.9737401 -13.2427906  40.2699280 -16.7547401
 -11.8387906  40.5299280 -16.2517401 -15.6577906  45.5759280   6.1552599
 -16.1387906  45.4619280   5.3362599 -15.5387906  46.5219280   6.2342599
   1.9552094  44.5059280  -2.2397401   1.0162094  44.4659280  -2.4217401
   2.3692094  44.1769280  -3.0377401 -11.3897906  39.8499280   2.9782599
 -11.0147906  39.7309280   3.8512599 -10.6397906  40.0559280   2.4202599
 -18.4387906  40.4709280   3.2062599 -17.7677906  41.0229280   3.6092599
 -19.0587906  41.0899280   2.8222599 -21.0377906  39.0619280   9.5502599
 -20.2377906  39.5079280   9.8282599 -21.7047906  39.7489280   9.5422599
 -12.0007906  42.9459280   5.3202599 -12.8997906  43.0089280   5.6432599
 -12.0907906  42.8999280   4.3682599 -15.4017906  46.6829280   3.1532599
 -15.8087906  45.8249280   3.2712599 -15.9147906  47.0989280   2.4602599
 -16.8537906  40.9219280  10.2662599 -17.4097906  40.8499280  11.0412599
 -17.3377906  40.4639280   9.5792599   6.1212094  38.3409280   7.9822599
   6.4912094  39.0849280   8.4572599   6.6462094  38.2799280   7.1842599
  -3.9857906  41.9669280   2.9642599  -3.9537906  41.0529280   3.2482599
  -3.4757906  41.9839280   2.1542599  -8.1547906  40.0799280   4.9422599
  -7.5137906  39.9869280   5.6472599  -8.9217906  40.4659280   5.3652599
 -15.6017906  46.4419280 -13.9997401 -16.1707906  47.1939280 -13.8347401
 -14.8437906  46.5849280 -13.4337401   7.3032094  46.6009280  -7.9637401
   7.3802094  45.6869280  -8.2387401   6.4812094  46.8999280  -8.3517401
 -15.9037906  43.0059280  -3.9147401 -16.3857906  43.5579280  -4.5297401
 -16.5307906  42.8209280  -3.2157401  -7.5617906  46.7149280   5.9472599
  -8.2757906  46.0819280   6.0182599  -7.0907906  46.6399280   6.7772599
  -7.3697906  38.5969280  -6.1567401  -6.7047906  37.9469280  -5.9277401
  -7.2247906  39.3159280  -5.5427401 -17.6977906  42.4419280   7.4872599
 -18.6257906  42.5769280   7.2962599 -17.4637906  43.1659280   8.0672599
  -1.2707906  40.7149280   4.9202599  -1.6177906  40.5519280   4.0432599
  -1.3697906  39.8799280   5.3772599 -19.2557906  45.6269280   6.6582599
 -18.4557906  45.1079280   6.7422599 -19.4017906  45.6909280   5.7142599
   5.6202094  39.7529280  -1.6137401   5.5632094  38.8289280  -1.3697401
   5.5662094  40.2239280  -0.7817401  -6.9787906  41.7469280 -17.8927401
  -6.4197906  40.9709280 -17.9307401  -7.3237906  41.8379280 -18.7807401
 -21.9377906  41.8539280   4.5742599 -22.2567906  40.9769280   4.3632599
 -21.1747906  41.9749280   4.0082599 -12.2937906  45.6139280  -3.4587401
 -12.2687906  44.7599280  -3.0267401 -12.6717906  45.4359280  -4.3197401
  -7.2547906  42.6249280   6.7292599  -7.9497906  43.2829280   6.7402599
  -7.0217906  42.5369280   5.8052599 -13.4347906  46.5199280   8.8712599
 -14.0107906  46.6129280   8.1122599 -12.6257906  46.9619280   8.6142599
 -14.8657906  45.5329280   0.3502599 -14.8887906  44.5769280   0.3232599
 -14.0257906  45.7419280   0.7602599 -21.6907906  44.4899280  -9.7447401
 -22.1637906  44.7569280 -10.5327401 -20.8917906  45.0169280  -9.7537401
 -20.6447906  43.1129280  -7.2957401 -21.1207906  43.4539280  -8.0527401
 -20.9687906  43.6269280  -6.5567401  -8.9527906  45.1749280 -16.9157401
  -9.7447906  45.6379280 -17.1917401  -9.2617906  44.5299280 -16.2797401
 -13.6457906  43.8739280 -13.6377401 -13.9617906  44.1069280 -14.5107401
 -13.3937906  42.9539280 -13.7107401  -9.9567906  40.4879280  -9.7777401
  -9.1787906  39.9919280  -9.5217401 -10.1737906  41.0099280  -9.0057401
  -2.7267906  41.4679280 -17.9677401  -2.3797906  40.7839280 -18.5407401
  -3.5877906  41.1439280 -17.7027401   5.3642094  40.8579280   0.7652599
   4.5622094  40.6449280   1.2432599   5.6162094  41.7219280   1.0902599
 -21.8207906  38.4309280   6.3512599 -21.0357906  38.5019280   5.8082599
 -21.5707906  38.8249280   7.1872599 -12.3797906  39.8799280  -3.6637401
 -12.2137906  39.9079280  -2.7207401 -12.1047906  40.7399280  -3.9807401
   3.5252094  46.9569280  -4.6787401   3.1192094  47.8239280  -4.6587401
   2.7872094  46.3469280  -4.6857401  -9.1687906  38.8789280 -17.5387401
  -9.9497906  38.6559280 -18.0447401  -9.1637906  39.8359280 -17.5127401
 -19.6387906  39.0189280 -14.8117401 -18.6837906  39.0859280 -14.8177401
 -19.9347906  39.8439280 -14.4277401  -9.8617906  39.7409280  -6.8507401
  -9.2387906  39.0409280  -6.6537401 -10.7057906  39.3999280  -6.5557401
 -15.6127906  40.6209280   0.4112599 -15.0607906  39.8549280   0.2542599
 -16.3637906  40.2799280   0.8982599   4.5402094  38.7459280  -6.5527401
   4.6972094  38.1089280  -5.8557401   5.1242094  39.4759280  -6.3467401
 -14.4547906  42.6139280 -17.5257401 -14.3637906  43.2569280 -16.8227401
 -15.2757906  42.1599280 -17.3317401 -19.3717906  44.6169280 -17.4807401
 -18.8097906  45.2839280 -17.8757401 -18.8367906  44.2349280 -16.7847401
 -22.6757906  41.9949280 -13.5487401 -22.8207906  41.0809280 -13.7907401
 -22.7397906  42.0029280 -12.5937401  -2.9087906  38.7269280   6.9292599
  -3.5057906  38.4889280   7.6382599  -2.5167906  39.5529280   7.2122599
 -14.1167906  43.3719280   6.8332599 -14.2467906  43.2709280   7.7762599
 -14.8457906  43.9229280   6.5472599 -17.7577906  39.4359280   8.2312599
 -17.5757906  40.2449280   7.7542599 -17.8887906  38.7789280   7.5472599
 -14.3527906  40.9899280   5.5432599 -14.7207906  40.2479280   6.0222599
 -14.3437906  41.7049280   6.1792599   3.9582094  42.1009280   3.3412599
   3.9602094  41.2729280   3.8212599   4.5422094  42.6699280   3.8412599
 -12.8937906  41.9899280   2.4382599 -13.6977906  41.8969280   2.9492599
 -12.3037906  41.3259280   2.7942599 -11.9677906  40.6269280   8.7432599
 -12.8477906  40.4279280   8.4232599 -12.0917906  40.8459280   9.6662599
  -6.9337906  40.5399280   2.3132599  -7.2977906  40.3919280   3.1862599
  -6.0297906  40.2319280   2.3752599  -8.2777906  41.7929280   9.3512599
  -8.6407906  40.9239280   9.1752599  -7.7587906  41.9969280   8.5732599
  -9.7477906  39.9899280   0.6142599  -8.8477906  40.0399280   0.9372599
  -9.8727906  39.0669280   0.3942599 -14.5597906  39.7029280   8.7572599
 -15.2167906  39.8439280   9.4392599 -14.6237906  38.7689280   8.5532599
  -4.3257906  46.4639280 -17.7787401  -3.6127906  46.8179280 -17.2477401
  -4.7617906  47.2359280 -18.1407401   2.2812094  41.4489280   6.0182599
   1.9472094  41.1299280   5.1802599   2.8242094  40.7329280   6.3482599
 -13.7267906  39.6119280 -18.2107401 -14.4107906  38.9419280 -18.2347401
 -14.1397906  40.3899280 -18.5837401 -17.3107906  38.6119280   1.5112599
 -17.6607906  39.2389280   2.1442599 -17.4487906  37.7569280   1.9202599
  -8.1417906  46.2319280 -14.0307401  -7.4497906  46.1109280 -14.6807401
  -8.4127906  45.3429280 -13.8017401 -10.5697906  44.7819280 -11.5087401
  -9.7487906  44.3549280 -11.7517401 -11.2357906  44.3379280 -12.0337401
 -12.0387906  44.6469280  10.5802599 -11.6917906  45.3249280  11.1592599
 -12.6587906  45.1079280  10.0142599  -3.4357906  45.9819280  -6.5937401
  -3.2487906  46.4149280  -7.4267401  -3.8327906  46.6639280  -6.0517401
   4.6662094  42.4299280  -8.7327401   4.5242094  42.7299280  -9.6297401
   4.9012094  41.5059280  -8.8217401   1.0292094  46.3469280  -8.2527401
   0.4522094  46.9209280  -8.7557401   1.6902094  46.0599280  -8.8827401
   1.3272094  39.7859280  -8.4437401   0.4112094  39.9049280  -8.1937401
   1.2972094  39.1779280  -9.1817401 -22.7517906  45.1639280  -1.8027401
 -22.0337906  45.7679280  -1.6137401 -23.0947906  45.4569280  -2.6467401
  -4.1897906  43.3259280  -6.8777401  -3.6197906  42.9189280  -7.5307401
  -3.8157906  44.1969280  -6.7417401   4.9482094  41.2209280 -15.4367401
   5.4032094  40.4539280 -15.7847401   4.2282094  41.3709280 -16.0487401
  -6.9427906  45.4529280 -18.7257401  -7.6097906  45.2879280 -18.0587401
  -6.3557906  46.0929280 -18.3247401   3.1272094  43.8719280  -4.6177401
   3.3462094  44.2749280  -5.4577401   2.9502094  42.9559280  -4.8297401
   2.6382094  45.4059280 -13.8867401   2.0732094  44.6429280 -14.0077401
   2.9512094  45.6149280 -14.7677401  -6.1047906  45.4419280 -15.4997401
  -5.6157906  45.9509280 -16.1467401  -6.0277906  44.5359280 -15.7997401
 -17.1967906  42.3519280  -1.4237401 -16.6827906  41.8509280  -0.7917401
 -17.7027906  41.6919280  -1.8987401   2.4842094  44.0529280   0.3532599
   3.3592094  43.7179280   0.1572599   2.1092094  44.2599280  -0.5027401
 -12.3047906  45.5709280   1.5282599 -11.4647906  45.2289280   1.2202599
 -12.1837906  45.6909280   2.4702599   6.7202094  39.1359280 -16.0097401
   7.3832094  39.1989280 -16.6967401   6.3302094  38.2699280 -16.1317401
 -22.2537906  41.8729280 -17.2797401 -21.9087906  42.3779280 -18.0157401
 -23.1927906  41.8059280 -17.4537401  -4.7957906  45.4429280   7.8332599
  -5.4867906  44.9969280   8.3222599  -4.7127906  44.9409280   7.0222599
   3.9302094  42.0499280  -1.5237401   3.6532094  42.5189280  -2.3107401
   3.2342094  41.4129280  -1.3657401  -2.9167906  46.2189280   9.8482599
  -3.3567906  45.9539280   9.0402599  -3.5387906  46.0049280  10.5422599
  -1.5457906  39.1919280 -10.8027401  -1.4127906  39.5359280  -9.9197401
  -2.2207906  38.5209280 -10.6987401   1.3712094  42.8659280   9.8892599
   1.1072094  43.4579280   9.1852599   0.6222094  42.8539280  10.4862599
   4.2082094  39.0509280   3.9702599   3.2992094  38.8089280   3.7912599
   4.6462094  38.2199280   4.1542599   0.5502094  43.4809280  -7.5707401
   0.9522094  44.3169280  -7.8087401   1.2912094  42.9009280  -7.3927401
   2.1632094  39.4649280   0.7272599   1.8602094  39.8329280  -0.1027401
   1.6632094  39.9339280   1.3952599   3.5092094  45.9289280   4.5562599
   3.4892094  45.1889280   5.1622599   4.2922094  46.4209280   4.8042599
 -22.7817906  44.7709280 -12.0967401 -23.3597906  44.3299280 -12.7207401
 -22.1037906  45.1729280 -12.6407401 -17.4017906  40.0749280  -5.2847401
 -16.4597906  39.9819280  -5.4317401 -17.6927906  40.6809280  -5.9657401
 -10.7717906  42.2249280 -19.0767401 -11.3637906  42.9479280 -19.2837401
 -10.0967906  42.2659280 -19.7547401   1.6472094  40.5229280  -1.8197401
   1.8852094  40.6199280  -2.7417401   1.1072094  39.7329280  -1.7927401
 -14.2627906  42.8349280   0.0422599 -13.6557906  42.5319280   0.7182599
 -14.9977906  42.2229280   0.0892599   4.8612094  45.6659280   9.1072599
   5.3802094  46.4399280   8.8872599   4.7012094  45.2359280   8.2672599
  -1.5787906  40.1659280  -8.3357401  -1.7557906  40.1839280  -7.3957401
  -1.7147906  41.0689280  -8.6227401  -0.6957906  44.6599280  -2.9247401
  -1.2367906  45.2539280  -2.4047401  -1.1317906  44.6199280  -3.7757401
   5.1822094  39.9799280 -10.0897401   4.8562094  39.2099280  -9.6247401
   4.7732094  39.9299280 -10.9537401 -20.1167906  42.5259280   2.4852599
 -20.5067906  42.0229280   1.7702599 -19.8127906  43.3339280   2.0702599
 -10.6727906  45.8919280  -7.1637401  -9.7327906  45.8669280  -7.3427401
 -10.8457906  45.0859280  -6.6777401 -20.8457906  46.6879280  -0.9587401
 -19.9947906  47.0919280  -0.7907401 -21.4037906  46.9979280  -0.2457401
   4.6912094  44.3939280  -6.7097401   4.8222094  43.5689280  -7.1777401
   4.6202094  45.0529280  -7.4007401 -16.7467906  41.9409280 -16.0507401
 -17.0997906  42.8049280 -15.8367401 -17.4367906  41.5219280 -16.5657401
  -2.6497906  41.6849280 -12.2117401  -2.0237906  41.1189280 -11.7587401
  -3.3837906  41.7659280 -11.6037401  -0.6477906  46.2039280 -10.7507401
   0.2662094  45.9199280 -10.7827401  -0.6847906  46.9599280 -11.3367401
   4.2982094  46.3589280  -8.6267401   3.8572094  47.0959280  -8.2037401
   4.4732094  46.6639280  -9.5177401   1.6182094  46.6689280 -19.2197401
   2.1872094  47.2689280 -19.7017401   2.1372094  46.4049280 -18.4597401
  -2.3667906  44.1609280 -13.4347401  -2.1227906  43.3749280 -12.9467401
  -1.5317906  44.5359280 -13.7177401  -7.7417906  41.5459280  -7.4127401
  -6.8817906  41.1379280  -7.5157401  -8.2357906  40.9319280  -6.8687401
 -21.5577906  45.2469280  -5.2227401 -22.4457906  45.1739280  -4.8757401
 -21.2647906  46.1169280  -4.9527401   1.9752094  40.5509280 -13.4867401
   1.3712094  39.8079280 -13.4737401   2.8452094  40.1519280 -13.4817401
   1.6922094  42.2219280 -11.0487401   1.8532094  41.5619280 -11.7227401
   2.5562094  42.3989280 -10.6747401  -1.3917906  44.3949280  -5.6597401
  -2.0677906  44.8899280  -6.1227401  -0.7737906  44.1359280  -6.3437401
   4.4252094  43.4059280 -11.3247401   4.5782094  44.3269280 -11.1117401
   4.7482094  43.3109280 -12.2207401   0.4462094  38.9049280  -5.1607401
   0.8912094  38.1979280  -5.6277401   1.1362094  39.5409280  -4.9737401
  -6.5507906  44.0989280  -7.5807401  -5.6567906  43.7889280  -7.4407401
  -7.0857906  43.3059280  -7.5597401   2.4482094  40.9579280  -4.2357401
   3.3472094  40.6339280  -4.1717401   2.3002094  41.0709280  -5.1747401
   0.2082094  46.8699280 -15.8807401   0.4022094  47.8059280 -15.9357401
   0.6252094  46.5859280 -15.0667401  -4.4157906  40.2029280 -14.8787401
  -4.6407906  39.4679280 -14.3087401  -3.4597906  40.2429280 -14.8517401
  -2.9027906  46.8029280  -9.3197401  -2.9027906  47.6869280  -9.6867401
  -2.1987906  46.3509280  -9.7827401  -4.2677906  44.6709280 -10.4397401
  -4.1257906  44.7409280 -11.3837401  -3.9537906  45.5029280 -10.0867401
  -5.2297906  40.5529280  -7.6867401  -5.2767906  40.3609280  -6.7497401
  -5.3707906  39.7079280  -8.1117401   0.2752094  44.4809280 -17.0997401
   0.3052094  45.3989280 -16.8307401  -0.2357906  44.4839280 -17.9087401
   0.2802094  43.0169280   7.2312599   0.9802094  42.5889280   6.7392599
  -0.3567906  43.2769280   6.5662599   7.1872094  41.7479280 -10.6507401
   6.4752094  41.1229280 -10.5137401   6.8112094  42.5959280 -10.4167401
 -14.8897906  39.3649280 -12.3247401 -14.4267906  39.8399280 -11.6347401
 -15.2007906  40.0479280 -12.9187401   3.2502094  44.6379280 -16.5127401
   3.9632094  44.9119280 -17.0897401   2.6632094  44.1369280 -17.0787401
   5.5532094  43.9029280  -0.0847401   5.9912094  44.4289280  -0.7537401
   5.2472094  43.1259280  -0.5527401  -9.1067906  39.2439280   9.4082599
 -10.0037906  39.1109280   9.7132599  -8.5677906  39.1279280  10.1912599
  -1.8707906  42.8199280  -1.6307401  -2.2307906  42.3419280  -2.3777401
  -1.2887906  43.4719280  -2.0217401   1.3002094  40.1709280   8.7292599
   1.9682094  39.8659280   8.1152599   1.5932094  41.0449280   8.9872599
 -22.1297906  42.9169280   7.1942599 -21.9907906  42.7709280   6.2592599
 -21.9357906  43.8449280   7.3242599  -1.6187906  43.4359280   5.0222599
  -2.4627906  43.6999280   5.3872599  -1.5567906  42.4999280   5.2122599
   3.7312094  44.0149280   6.5532599   3.0082094  43.4019280   6.4202599
   4.5102094  43.5299280   6.2802599 -20.1637906  45.5079280   3.9442599
 -19.8967906  46.3199280   3.5122599 -20.7087906  45.0599280   3.2962599
   4.1962094  46.1899280   1.5242599   4.3512094  46.0029280   2.4502599
   3.3622094  45.7609280   1.3302599  -0.6257906  45.7849280   3.8482599
  -0.1797906  45.6659280   3.0102599  -0.8277906  44.8959280   4.1412599
 -21.0987906  43.1839280 -15.1587401 -21.4197906  42.7669280 -15.9587401
 -21.7267906  42.9249280 -14.4847401   5.0762094  41.3749280 -18.5967401
   4.3262094  40.8019280 -18.4357401   4.7582094  42.2519280 -18.3857401
  -5.2237906  44.3809280   2.4792599  -4.8857906  43.4869280   2.5292599
  -4.5727906  44.8559280   1.9622599  -4.1797906  42.2289280   8.3132599
  -3.3667906  41.7309280   8.2282599  -4.2267906  42.4559280   9.2422599
  -2.7447906  45.0379280   1.2912599  -2.4017906  44.1759280   1.0562599
  -1.9657906  45.5729280   1.4432599   6.6012094  41.6019280  -3.3137401
   6.4242094  40.8209280  -2.7887401   6.0942094  42.2949280  -2.8897401
  -4.9327906  46.0609280   4.7362599  -5.0547906  45.1119280   4.7062599
  -5.7967906  46.4069280   4.9622599   7.0372094  41.0299280   9.3222599
   6.4992094  41.3599280  10.0412599   6.9072094  41.6619280   8.6152599
   1.1882094  43.1429280 -14.3147401   1.0722094  42.9589280 -15.2467401
   1.4352094  42.3009280 -13.9327401   5.8852094  43.4169280   4.5872599
   6.4162094  44.1009280   4.9962599   6.4582094  42.6509280   4.5622599
 -20.2957906  42.2269280   9.6082599 -20.4727906  43.1659280   9.6512599
 -20.8077906  41.9189280   8.8602599   0.2842094  45.5299280   1.3462599
   0.7592094  46.2259280   0.8922599   0.7702094  44.7319280   1.1362599
 -22.6917906  45.6099280   5.6502599 -21.8117906  45.7439280   5.2962599
 -23.1347906  46.4479280   5.5152599  -1.5297906  42.6489280  -9.1487401
  -0.6417906  42.8669280  -8.8657401  -1.8557906  43.4529280  -9.5547401
 -16.7607906  44.4749280  -6.3957401 -16.0507906  44.3619280  -7.0277401
 -16.8327906  45.4219280  -6.2817401   1.3012094  42.1519280   1.7372599
   1.7752094  42.9119280   1.3982599   1.7292094  41.9549280   2.5702599
  -9.0707906  44.8889280  -3.7467401  -8.5677906  45.2839280  -4.4587401
  -9.3847906  45.6339280  -3.2337401  -5.5967906  40.6779280  -5.1227401
  -5.3557906  40.1199280  -4.3827401  -5.8167906  41.5209280  -4.7257401
 -16.6367906  42.0819280   4.4752599 -15.7807906  41.8699280   4.8482599
 -17.1857906  42.2809280   5.2332599   4.6612094  46.7319280 -12.0087401
   4.2662094  47.4919280 -12.4367401   4.6402094  46.0449280 -12.6747401
 -18.1737906  46.6419280 -19.0247401 -18.2627906  47.5779280 -18.8457401
 -17.2327906  46.4759280 -18.9697401 -19.2337906  43.7299280  -4.6627401
 -18.5257906  44.1829280  -5.1217401 -19.9657906  44.3469280  -4.6817401
  -8.4447906  47.0309280   1.1052599  -8.3857906  47.9829280   1.1822599
  -8.4147906  46.8639280   0.1632599 -21.1027906  42.9949280  -2.0237401
 -21.5447906  42.5489280  -2.7467401 -21.7317906  43.6529280  -1.7277401
 -19.0267906  41.5749280 -13.8447401 -18.0727906  41.6519280 -13.8117401
 -19.3097906  42.3199280 -14.3747401  -3.2587906  38.4949280  -2.1487401
  -2.9607906  38.7849280  -3.0107401  -4.1327906  38.8729280  -2.0567401
  -6.5757906  41.0289280 -12.3497401  -6.3147906  40.1529280 -12.6327401
  -5.7557906  41.4559280 -12.1037401  -4.9577906  42.0849280 -10.5627401
  -4.7907906  43.0149280 -10.4067401  -5.1177906  41.7199280  -9.6927401
  -1.1137906  38.4479280   0.0202599  -0.5017906  38.2339280  -0.6847401
  -1.8567906  38.8569280  -0.4237401  -1.6987906  40.5469280 -14.6467401
  -1.7017906  41.0959280 -13.8617401  -1.2517906  41.0759280 -15.3077401
   2.4162094  41.6829280  -6.9757401   2.0432094  41.0759280  -7.6147401
   3.2722094  41.9149280  -7.3357401   2.7032094  40.5769280 -17.1117401
   1.8842094  41.0699280 -17.1567401   2.4662094  39.7549280 -16.6827401
 -11.0177906  42.6169280  -3.9197401 -11.7547906  42.8229280  -3.3437401
 -10.3157906  43.1979280  -3.6277401  -6.7657906  42.9999280  -3.6147401
  -6.7317906  42.9459280  -2.6597401  -7.3597906  43.7299280  -3.7917401
   4.5442094  39.6159280 -13.1187401   4.8182094  40.0989280 -13.8987401
   5.2012094  38.9269280 -13.0197401 -22.6837906  38.7149280 -13.2417401
 -22.6787906  38.6429280 -14.1967401 -22.1387906  37.9869280 -12.9437401
  -5.0097906  39.9339280 -17.3707401  -4.9947906  39.7439280 -16.4327401
  -4.8167906  39.0939280 -17.7887401 -14.9667906  43.0899280   9.4452599
 -14.5917906  43.1749280  10.3212599 -15.4497906  42.2639280   9.4692599
  -1.7207906  41.2829280   8.3322599  -1.1837906  40.7019280   8.8712599
  -1.1067906  41.9389280   8.0012599   6.9262094  39.6859280   3.3412599
   7.1592094  39.0339280   2.6802599   5.9842094  39.5709280   3.4702599
   3.8152094  43.6049280  10.7702599   2.9912094  43.2079280  10.4882599
   3.8102094  44.4749280  10.3712599   3.3042094  39.1129280   7.1532599
   3.0742094  38.5239280   6.4352599   4.0972094  38.7329280   7.5312599
 -19.0167906  41.0759280 -17.8497401 -19.6537906  41.5339280 -18.3987401
 -19.5437906  40.4899280 -17.3077401  -2.0747906  42.3379280   0.8612599
  -1.9497906  42.3879280  -0.0857401  -1.2037906  42.4889280   1.2272599
  -5.9767906  39.6459280   7.7042599  -5.3367906  39.0309280   8.0642599
  -5.6897906  40.5029280   8.0192599   1.1452094  40.1029280   3.9762599
   0.2712094  40.3819280   4.2512599   1.1882094  39.1769280   4.2152599
   6.5452094  44.9019280   2.3562599   6.1562094  44.6069280   1.5332599
   6.2132094  44.2889280   3.0122599  -0.4967906  39.0389280 -19.3657401
   0.0362094  38.7619280 -18.6207401   0.1392094  39.2529280 -20.0487401
 -20.7487906  40.8779280   0.2542599 -20.7767906  41.5369280  -0.4397401
 -21.4207906  40.2419280   0.0092599 -21.9437906  44.6529280 -18.4807401
 -21.6147906  45.1069280 -19.2567401 -21.1997906  44.6339280 -17.8797401
  -1.5247906  43.6989280  40.5452599  -2.2717906  43.3899280  41.0582599
  -1.8927906  44.3619280  39.9612599  -1.6877906  39.5849280  32.3492599
  -1.8477906  38.7359280  31.9372599  -1.1777906  40.0739280  31.7032599
 -16.9337906  45.4049280  19.3152599 -17.3987906  44.6079280  19.0622599
 -16.9097906  45.9319280  18.5162599 -13.7487906  47.1179280  28.4402599
 -14.3547906  46.6849280  29.0422599 -13.4187906  46.4119280  27.8842599
 -20.2797906  45.5989280  39.4612599 -19.5387906  46.0109280  39.9072599
 -19.9497906  45.3959280  38.5862599   5.2242094  43.9989280  16.1632599
   4.2842094  44.1189280  16.0272599   5.4032094  43.1149280  15.8442599
  -4.3807906  43.2929280  35.6602599  -4.6977906  42.9499280  36.4952599
  -4.4407906  42.5519280  35.0572599 -21.2237906  46.3039280  15.7522599
 -20.8997906  45.5159280  15.3172599 -20.4377906  46.7299280  16.0952599
 -18.4347906  40.1309280  27.2522599 -19.3657906  40.2679280  27.0782599
 -18.0447906  40.0069280  26.3872599 -11.7937906  40.6169280  28.7602599
 -12.0557906  41.5379280  28.7532599 -11.1207906  40.5639280  29.4382599
  -7.6577906  39.1159280  19.4862599  -8.0477906  39.8639280  19.0342599
  -7.7227906  38.3959280  18.8592599 -14.4587906  44.8199280  14.1162599
 -13.7947906  45.3419280  13.6662599 -14.8247906  45.4129280  14.7732599
 -13.7267906  41.2429280  22.9152599 -13.5467906  41.6989280  22.0932599
 -13.0397906  41.5419280  23.5122599  -0.3577906  42.0409280  13.2782599
  -1.1307906  42.0109280  12.7142599  -0.0147906  42.9279280  13.1672599
 -15.6047906  46.6389280  40.4662599 -15.4527906  47.1779280  41.2422599
 -14.7477906  46.5769280  40.0452599 -18.1257906  42.0469280  22.9612599
 -18.9787906  42.3859280  22.6872599 -17.5817906  42.8269280  23.0682599
  -7.2417906  42.9379280  33.8222599  -6.6897906  43.5789280  33.3742599
  -7.5457906  42.3549280  33.1272599 -10.8707906  43.3669280  29.0452599
 -10.0017906  43.7529280  28.9382599 -11.0467906  43.4279280  29.9842599
 -13.4217906  44.4339280  24.1742599 -14.3447906  44.2569280  24.3552599
 -13.2677906  44.0459280  23.3132599 -10.0857906  43.1779280  23.6492599
  -9.2567906  42.7119280  23.5372599 -10.4427906  42.8369280  24.4702599
 -11.5347906  47.0879280  19.9642599 -11.4717906  46.3789280  20.6052599
 -12.1397906  47.7149280  20.3582599 -16.8057906  39.3159280  15.0772599
 -15.9567906  38.9069280  14.9082599 -16.6517906  40.2509280  14.9452599
 -10.6217906  41.4629280  17.2632599 -10.2297906  41.9429280  17.9932599
  -9.9867906  40.7759280  17.0582599 -19.0197906  44.3649280  29.1602599
 -18.2767906  43.8299280  28.8822599 -19.7707906  43.9899280  28.6992599
 -15.5477906  43.9229280  21.3842599 -16.1627906  44.5009280  20.9322599
 -15.1717906  43.3819280  20.6902599 -18.3227906  42.7509280  19.2252599
 -18.9937906  42.1129280  19.4652599 -18.0607906  42.5029280  18.3392599
 -10.1967906  41.1779280  13.2602599 -10.5647906  41.5479280  12.4582599
  -9.5377906  41.8149280  13.5382599  -7.1737906  45.0479280  19.6012599
  -7.1927906  45.0479280  20.5582599  -6.2717906  45.2819280  19.3802599
 -21.2367906  40.2729280  22.9932599 -21.1427906  39.8339280  22.1482599
 -21.0317906  41.1899280  22.8122599 -12.6697906  46.9799280  13.5602599
 -12.0127906  47.0409280  12.8672599 -12.2187906  47.2889280  14.3462599
 -12.8397906  40.0569280  19.7802599 -11.9267906  40.2199280  19.5432599
 -12.7967906  39.6909280  20.6632599 -18.3427906  45.4269280  31.7092599
 -18.4367906  45.1529280  30.7962599 -18.3527906  46.3829280  31.6752599
  -5.4787906  39.7509280  27.9862599  -5.6667906  40.6009280  28.3842599
  -6.2207906  39.1999280  28.2342599 -14.3107906  42.5739280  19.2262599
 -13.9497906  42.8899280  18.3982599 -13.8317906  41.7639280  19.4032599
 -18.6407906  46.4759280  17.1722599 -19.2127906  46.7669280  17.8822599
 -18.4897906  47.2619280  16.6472599 -13.0407906  41.3199280  16.2552599
 -12.1917906  41.1709280  16.6732599 -13.0127906  40.7909280  15.4582599
  -9.8207906  44.5149280  31.5192599  -9.5457906  45.4289280  31.4482599
  -9.3577906  44.1849280  32.2892599  -7.8057906  45.5529280  38.6622599
  -7.5807906  45.4779280  39.5892599  -8.6627906  45.1329280  38.5882599
   6.2582094  40.8039280  24.1942599   6.3772094  41.1589280  25.0752599
   7.1472094  40.6629280  23.8692599 -20.3427906  40.7049280  20.1002599
 -20.8917906  41.4429280  19.8332599 -20.9307906  39.9499280  20.0812599
 -14.7927906  39.4869280  24.6772599 -14.6257906  40.2399280  24.1102599
 -14.2277906  39.6299280  25.4382599  -3.8217906  46.7829280  16.5832599
  -2.9037906  46.8139280  16.8542599  -3.9677906  45.8709280  16.3342599
  -9.3687906  38.9999280  15.7392599  -8.5517906  38.9789280  16.2362599
  -9.0947906  38.9459280  14.8232599  -8.0807906  43.4659280  17.3502599
  -7.5247906  42.6899280  17.2812599  -7.5447906  44.1049280  17.8202599
 -18.3807906  38.4059280  19.7662599 -17.8587906  38.7649280  20.4832599
 -19.1047906  39.0239280  19.6632599   5.9892094  45.1879280  25.7312599
   5.7822094  44.7759280  24.8932599   5.1652094  45.5869280  26.0122599
 -20.6187906  40.8689280  25.6342599 -20.8267906  40.4509280  24.7982599
 -20.0537906  41.6059280  25.3992599  -2.4587906  39.6279280  25.0082599
  -1.5677906  39.5009280  24.6822599  -2.4847906  40.5449280  25.2832599
 -16.8517906  39.7319280  21.4532599 -16.1037906  40.3269280  21.4972599
 -17.6107906  40.2859280  21.6372599  -4.8487906  43.2139280  10.9482599
  -5.7607906  43.4819280  11.0642599  -4.6147906  42.7949280  11.7772599
 -16.4307906  42.3139280  16.8922599 -15.9887906  42.5969280  17.6922599
 -16.0357906  42.8439280  16.1992599 -12.2797906  43.2729280  21.6992599
 -12.3657906  43.9439280  21.0212599 -11.4327906  43.4509280  22.1072599
  -4.9557906  44.2329280  16.9342599  -4.0387906  44.0479280  16.7322599
  -5.4447906  43.8429280  16.2102599   2.0082094  45.8659280  19.2242599
   2.1182094  45.1669280  18.5792599   2.6862094  46.5039280  19.0042599
  -6.4057906  42.0649280  29.6622599  -5.7027906  42.7149280  29.6592599
  -6.6157906  41.9429280  30.5882599 -11.1677906  46.5629280  34.2212599
 -10.8927906  45.9299280  34.8852599 -10.8817906  47.4089280  34.5652599
  -9.3247906  46.7959280  28.3962599 -10.2407906  46.9089280  28.6522599
  -9.0947906  47.6159280  27.9592599 -17.4367906  44.2869280  15.1542599
 -16.8747906  45.0289280  14.9312599 -17.6857906  44.4399280  16.0662599
  -5.7537906  42.7269280  14.3082599  -5.4897906  41.8639280  14.6272599
  -6.4797906  42.5489280  13.7092599 -13.5127906  43.1849280  27.2932599
 -14.3347906  43.2019280  26.8032599 -13.7817906  43.1459280  28.2112599
   6.0182094  45.7079280  12.9022599   6.0572094  45.4139280  13.8122599
   6.7272094  45.2329280  12.4672599  -9.9807906  44.5319280  36.4702599
 -10.5907906  45.2359280  36.6882599 -10.5227906  43.8679280  36.0442599
  -4.9757906  44.2369280  28.9662599  -4.0727906  44.0559280  28.7032599
  -5.0267906  45.1919280  29.0092599 -17.1487906  46.6109280  28.8662599
 -16.5497906  46.3149280  29.5522599 -17.6237906  45.8219280  28.6062599
 -16.9017906  44.6999280  33.7902599 -16.9487906  43.7439280  33.7752599
 -17.5547906  44.9829280  33.1512599 -10.7327906  40.7239280  36.2692599
 -10.9177906  40.7779280  37.2062599 -11.1377906  41.5079280  35.8982599
  -2.6967906  42.2729280  25.6412599  -2.2047906  42.9369280  25.1582599
  -3.5487906  42.2419280  25.2062599 -17.1167906  44.9969280  38.5792599
 -16.5397906  45.2199280  37.8492599 -16.5827906  45.1429280  39.3602599
 -12.6927906  40.1989280  14.0262599 -13.2427906  40.2699280  13.2452599
 -11.8387906  40.5299280  13.7482599 -15.6577906  45.5759280  36.1552599
 -16.1387906  45.4619280  35.3362599 -15.5387906  46.5219280  36.2342599
   1.9552094  44.5059280  27.7602599   1.0162094  44.4659280  27.5782599
   2.3692094  44.1769280  26.9622599 -11.3897906  39.8499280  32.9782599
 -11.0147906  39.7309280  33.8512599 -10.6397906  40.0559280  32.4202599
 -18.4387906  40.4709280  33.2062599 -17.7677906  41.0229280  33.6092599
 -19.0587906  41.0899280  32.8222599 -21.0377906  39.0619280  39.5502599
 -20.2377906  39.5079280  39.8282599 -21.7047906  39.7489280  39.5422599
 -12.0007906  42.9459280  35.3202599 -12.8997906  43.0089280  35.6432599
 -12.0907906  42.8999280  34.3682599 -15.4017906  46.6829280  33.1532599
 -15.8087906  45.8249280  33.2712599 -15.9147906  47.0989280  32.4602599
 -16.8537906  40.9219280  40.2662599 -17.4097906  40.8499280  41.0412599
 -17.3377906  40.4639280  39.5792599   6.1212094  38.3409280  37.9822599
   6.4912094  39.0849280  38.4572599   6.6462094  38.2799280  37.1842599
  -3.9857906  41.9669280  32.9642599  -3.9537906  41.0529280  33.2482599
  -3.4757906  41.9839280  32.1542599  -8.1547906  40.0799280  34.9422599
  -7.5137906  39.9869280  35.6472599  -8.9217906  40.4659280  35.3652599
 -15.6017906  46.4419280  16.0002599 -16.1707906  47.1939280  16.1652599
 -14.8437906  46.5849280  16.5662599   7.3032094  46.6009280  22.0362599
   7.3802094  45.6869280  21.7612599   6.4812094  46.8999280  21.6482599
 -15.9037906  43.0059280  26.0852599 -16.3857906  43.5579280  25.4702599
 -16.5307906  42.8209280  26.7842599  -7.5617906  46.7149280  35.9472599
  -8.2757906  46.0819280  36.0182599  -7.0907906  46.6399280  36.7772599
  -7.3697906  38.5969280  23.8432599  -6.7047906  37.9469280  24.0722599
  -7.2247906  39.3159280  24.4572599 -17.6977906  42.4419280  37.4872599
 -18.6257906  42.5769280  37.2962599 -17.4637906  43.1659280  38.0672599
  -1.2707906  40.7149280  34.9202599  -1.6177906  40.5519280  34.0432599
  -1.3697906  39.8799280  35.3772599 -19.2557906  45.6269280  36.6582599
 -18.4557906  45.1079280  36.7422599 -19.4017906  45.6909280  35.7142599
   5.6202094  39.7529280  28.3862599   5.5632094  38.8289280  28.6302599
   5.5662094  40.2239280  29.2182599  -6.9787906  41.7469280  12.1072599
  -6.4197906  40.9709280  12.0692599  -7.3237906  41.8379280  11.2192599
 -21.9377906  41.8539280  34.5742599 -22.2567906  40.9769280  34.3632599
 -21.1747906  41.9749280  34.0082599 -12.2937906  45.6139280  26.5412599
 -12.2687906  44.7599280  26.9732599 -12.6717906  45.4359280  25.6802599
  -7.2547906  42.6249280  36.7292599  -7.9497906  43.2829280  36.7402599
  -7.0217906  42.5369280  35.8052599 -13.4347906  46.5199280  38.8712599
 -14.0107906  46.6129280  38.1122599 -12.6257906  46.9619280  38.6142599
 -21.6907906  44.4899280  20.2552599 -22.1637906  44.7569280  19.4672599
 -20.8917906  45.0169280  20.2462599 -20.6447906  43.1129280  22.7042599
 -21.1207906  43.4539280  21.9472599 -20.9687906  43.6269280  23.4432599
  -8.9527906  45.1749280  13.0842599  -9.7447906  45.6379280  12.8082599
  -9.2617906  44.5299280  13.7202599  -9.7217906  43.5619280  15.2782599
  -9.1297906  43.5529280  16.0302599 -10.4147906  42.9439280  15.5112599
 -13.6457906  43.8739280  16.3622599 -13.9617906  44.1069280  15.4892599
 -13.3937906  42.9539280  16.2892599  -9.9567906  40.4879280  20.2222599
  -9.1787906  39.9919280  20.4782599 -10.1737906  41.0099280  20.9942599
  -2.7267906  41.4679280  12.0322599  -2.3797906  40.7839280  11.4592599
  -3.5877906  41.1439280  12.2972599   5.3642094  40.8579280  30.7652599
   4.5622094  40.6449280  31.2432599   5.6162094  41.7219280  31.0902599
 -21.8207906  38.4309280  36.3512599 -21.0357906  38.5019280  35.8082599
 -21.5707906  38.8249280  37.1872599 -12.3797906  39.8799280  26.3362599
 -12.2137906  39.9079280  27.2792599 -12.1047906  40.7399280  26.0192599
   3.5252094  46.9569280  25.3212599   3.1192094  47.8239280  25.3412599
   2.7872094  46.3469280  25.3142599  -9.1687906  38.8789280  12.4612599
  -9.9497906  38.6559280  11.9552599  -9.1637906  39.8359280  12.4872599
 -19.6387906  39.0189280  15.1882599 -18.6837906  39.0859280  15.1822599
 -19.9347906  39.8439280  15.5722599  -9.8617906  39.7409280  23.1492599
  -9.2387906  39.0409280  23.3462599 -10.7057906  39.3999280  23.4442599
 -15.6127906  40.6209280  30.4112599 -15.0607906  39.8549280  30.2542599
 -16.3637906  40.2799280  30.8982599   4.5402094  38.7459280  23.4472599
   4.6972094  38.1089280  24.1442599   5.1242094  39.4759280  23.6532599
 -14.4547906  42.6139280  12.4742599 -14.3637906  43.2569280  13.1772599
 -15.2757906  42.1599280  12.6682599 -19.3717906  44.6169280  12.5192599
 -18.8097906  45.2839280  12.1242599 -18.8367906  44.2349280  13.2152599
 -22.6757906  41.9949280  16.4512599 -22.8207906  41.0809280  16.2092599
 -22.7397906  42.0029280  17.4062599  -2.9087906  38.7269280  36.9292599
  -3.5057906  38.4889280  37.6382599  -2.5167906  39.5529280  37.2122599
 -14.1167906  43.3719280  36.8332599 -14.2467906  43.2709280  37.7762599
 -14.8457906  43.9229280  36.5472599 -17.7577906  39.4359280  38.2312599
 -17.5757906  40.2449280  37.7542599 -17.8887906  38.7789280  37.5472599
 -14.3527906  40.9899280  35.5432599 -14.7207906  40.2479280  36.0222599
 -14.3437906  41.7049280  36.1792599   3.9582094  42.1009280  33.3412599
   3.9602094  41.2729280  33.8212599   4.5422094  42.6699280  33.8412599
 -12.8937906  41.9899280  32.4382599 -13.6977906  41.8969280  32.9492599
 -12.3037906  41.3259280  32.7942599 -11.9677906  40.6269280  38.7432599
 -12.8477906  40.4279280  38.4232599 -12.0917906  40.8459280  39.6662599
  -6.9337906  40.5399280  32.3132599  -7.2977906  40.3919280  33.1862599
  -6.0297906  40.2319280  32.3752599  -8.2777906  41.7929280  39.3512599
  -8.6407906  40.9239280  39.1752599  -7.7587906  41.9969280  38.5732599
  -9.7477906  39.9899280  30.6142599  -8.8477906  40.0399280  30.9372599
  -9.8727906  39.0669280  30.3942599 -14.5597906  39.7029280  38.7572599
 -15.2167906  39.8439280  39.4392599 -14.6237906  38.7689280  38.5532599
  -4.3257906  46.4639280  12.2212599  -3.6127906  46.8179280  12.7522599
  -4.7617906  47.2359280  11.8592599   2.2812094  41.4489280  36.0182599
   1.9472094  41.1299280  35.1802599   2.8242094  40.7329280  36.3482599
 -13.7267906  39.6119280  11.7892599 -14.4107906  38.9419280  11.7652599
 -14.1397906  40.3899280  11.4162599 -17.3107906  38.6119280  31.5112599
 -17.6607906  39.2389280  32.1442599 -17.4487906  37.7569280  31.9202599
  -8.1417906  46.2319280  15.9692599  -7.4497906  46.1109280  15.3192599
  -8.4127906  45.3429280  16.1982599 -10.5697906  44.7819280  18.4912599
  -9.7487906  44.3549280  18.2482599 -11.2357906  44.3379280  17.9662599
 -12.0387906  44.6469280  40.5802599 -11.6917906  45.3249280  41.1592599
 -12.6587906  45.1079280  40.0142599  -3.4357906  45.9819280  23.4062599
  -3.2487906  46.4149280  22.5732599  -3.8327906  46.6639280  23.9482599
   4.6662094  42.4299280  21.2672599   4.5242094  42.7299280  20.3702599
   4.9012094  41.5059280  21.1782599   1.0292094  46.3469280  21.7472599
   0.4522094  46.9209280  21.2442599   1.6902094  46.0599280  21.1172599
   1.3272094  39.7859280  21.5562599   0.4112094  39.9049280  21.8062599
   1.2972094  39.1779280  20.8182599 -22.7517906  45.1639280  28.1972599
 -22.0337906  45.7679280  28.3862599 -23.0947906  45.4569280  27.3532599
  -4.1897906  43.3259280  23.1222599  -3.6197906  42.9189280  22.4692599
  -3.8157906  44.1969280  23.2582599   4.9482094  41.2209280  14.5632599
   5.4032094  40.4539280  14.2152599   4.2282094  41.3709280  13.9512599
  -6.9427906  45.4529280  11.2742599  -7.6097906  45.2879280  11.9412599
  -6.3557906  46.0929280  11.6752599   3.1272094  43.8719280  25.3822599
   3.3462094  44.2749280  24.5422599   2.9502094  42.9559280  25.1702599
   2.6382094  45.4059280  16.1132599   2.0732094  44.6429280  15.9922599
   2.9512094  45.6149280  15.2322599  -6.1047906  45.4419280  14.5002599
  -5.6157906  45.9509280  13.8532599  -6.0277906  44.5359280  14.2002599
 -17.1967906  42.3519280  28.5762599 -16.6827906  41.8509280  29.2082599
 -17.7027906  41.6919280  28.1012599   2.4842094  44.0529280  30.3532599
   3.3592094  43.7179280  30.1572599   2.1092094  44.2599280  29.4972599
 -12.3047906  45.5709280  31.5282599 -11.4647906  45.2289280  31.2202599
 -12.1837906  45.6909280  32.4702599   6.7202094  39.1359280  13.9902599
   7.3832094  39.1989280  13.3032599   6.3302094  38.2699280  13.8682599
 -22.2537906  41.8729280  12.7202599 -21.9087906  42.3779280  11.9842599
 -23.1927906  41.8059280  12.5462599  -4.7957906  45.4429280  37.8332599
  -5.4867906  44.9969280  38.3222599  -4.7127906  44.9409280  37.0222599
  -2.9167906  46.2189280  39.8482599  -3.3567906  45.9539280  39.0402599
  -3.5387906  46.0049280  40.5422599  -1.5457906  39.1919280  19.1972599
  -1.4127906  39.5359280  20.0802599  -2.2207906  38.5209280  19.3012599
   1.3712094  42.8659280  39.8892599   1.1072094  43.4579280  39.1852599
   0.6222094  42.8539280  40.4862599   4.2082094  39.0509280  33.9702599
   3.2992094  38.8089280  33.7912599   4.6462094  38.2199280  34.1542599
   0.5502094  43.4809280  22.4292599   0.9522094  44.3169280  22.1912599
   1.2912094  42.9009280  22.6072599   2.1632094  39.4649280  30.7272599
   1.8602094  39.8329280  29.8972599   1.6632094  39.9339280  31.3952599
   3.5092094  45.9289280  34.5562599   3.4892094  45.1889280  35.1622599
   4.2922094  46.4209280  34.8042599 -22.7817906  44.7709280  17.9032599
 -23.3597906  44.3299280  17.2792599 -22.1037906  45.1729280  17.3592599
 -17.4017906  40.0749280  24.7152599 -16.4597906  39.9819280  24.5682599
 -17.6927906  40.6809280  24.0342599 -10.7717906  42.2249280  10.9232599
 -11.3637906  42.9479280  10.7162599 -10.0967906  42.2659280  10.2452599
   1.6472094  40.5229280  28.1802599   1.8852094  40.6199280  27.2582599
   1.1072094  39.7329280  28.2072599 -14.2627906  42.8349280  30.0422599
 -13.6557906  42.5319280  30.7182599 -14.9977906  42.2229280  30.0892599
   4.8612094  45.6659280  39.1072599   5.3802094  46.4399280  38.8872599
   4.7012094  45.2359280  38.2672599  -1.5787906  40.1659280  21.6642599
  -1.7557906  40.1839280  22.6042599  -1.7147906  41.0689280  21.3772599
  -0.6957906  44.6599280  27.0752599  -1.2367906  45.2539280  27.5952599
  -1.1317906  44.6199280  26.2242599   5.1822094  39.9799280  19.9102599
   4.8562094  39.2099280  20.3752599   4.7732094  39.9299280  19.0462599
 -20.1167906  42.5259280  32.4852599 -20.5067906  42.0229280  31.7702599
 -19.8127906  43.3339280  32.0702599 -10.6727906  45.8919280  22.8362599
  -9.7327906  45.8669280  22.6572599 -10.8457906  45.0859280  23.3222599
 -20.8457906  46.6879280  29.0412599 -19.9947906  47.0919280  29.2092599
 -21.4037906  46.9979280  29.7542599   4.6912094  44.3939280  23.2902599
   4.8222094  43.5689280  22.8222599   4.6202094  45.0529280  22.5992599
 -16.7467906  41.9409280  13.9492599 -17.0997906  42.8049280  14.1632599
 -17.4367906  41.5219280  13.4342599  -2.6497906  41.6849280  17.7882599
  -2.0237906  41.1189280  18.2412599  -3.3837906  41.7659280  18.3962599
  -0.6477906  46.2039280  19.2492599   0.2662094  45.9199280  19.2172599
  -0.6847906  46.9599280  18.6632599   4.2982094  46.3589280  21.3732599
   3.8572094  47.0959280  21.7962599   4.4732094  46.6639280  20.4822599
   1.6182094  46.6689280  10.7802599   2.1872094  47.2689280  10.2982599
   2.1372094  46.4049280  11.5402599  -2.3667906  44.1609280  16.5652599
  -2.1227906  43.3749280  17.0532599  -1.5317906  44.5359280  16.2822599
  -7.7417906  41.5459280  22.5872599  -6.8817906  41.1379280  22.4842599
  -8.2357906  40.9319280  23.1312599 -21.5577906  45.2469280  24.7772599
 -22.4457906  45.1739280  25.1242599 -21.2647906  46.1169280  25.0472599
   1.9752094  40.5509280  16.5132599   1.3712094  39.8079280  16.5262599
   2.8452094  40.1519280  16.5182599   1.6922094  42.2219280  18.9512599
   1.8532094  41.5619280  18.2772599   2.5562094  42.3989280  19.3252599
  -1.3917906  44.3949280  24.3402599  -2.0677906  44.8899280  23.8772599
  -0.7737906  44.1359280  23.6562599   4.4252094  43.4059280  18.6752599
   4.5782094  44.3269280  18.8882599   4.7482094  43.3109280  17.7792599
   0.4462094  38.9049280  24.8392599   0.8912094  38.1979280  24.3722599
   1.1362094  39.5409280  25.0262599  -6.5507906  44.0989280  22.4192599
  -5.6567906  43.7889280  22.5592599  -7.0857906  43.3059280  22.4402599
   2.4482094  40.9579280  25.7642599   3.3472094  40.6339280  25.8282599
   2.3002094  41.0709280  24.8252599   0.2082094  46.8699280  14.1192599
   0.4022094  47.8059280  14.0642599   0.6252094  46.5859280  14.9332599
  -4.4157906  40.2029280  15.1212599  -4.6407906  39.4679280  15.6912599
  -3.4597906  40.2429280  15.1482599  -2.9027906  46.8029280  20.6802599
  -2.9027906  47.6869280  20.3132599  -2.1987906  46.3509280  20.2172599
  -4.2677906  44.6709280  19.5602599  -4.1257906  44.7409280  18.6162599
  -3.9537906  45.5029280  19.9132599  -5.2297906  40.5529280  22.3132599
  -5.2767906  40.3609280  23.2502599  -5.3707906  39.7079280  21.8882599
   0.2752094  44.4809280  12.9002599   0.3052094  45.3989280  13.1692599
  -0.2357906  44.4839280  12.0912599   0.2802094  43.0169280  37.2312599
   0.9802094  42.5889280  36.7392599  -0.3567906  43.2769280  36.5662599
   7.1872094  41.7479280  19.3492599   6.4752094  41.1229280  19.4862599
   6.8112094  42.5959280  19.5832599 -14.8897906  39.3649280  17.6752599
 -14.4267906  39.8399280  18.3652599 -15.2007906  40.0479280  17.0812599
   3.2502094  44.6379280  13.4872599   3.9632094  44.9119280  12.9102599
   2.6632094  44.1369280  12.9212599   5.5532094  43.9029280  29.9152599
   5.9912094  44.4289280  29.2462599   5.2472094  43.1259280  29.4472599
  -9.1067906  39.2439280  39.4082599 -10.0037906  39.1109280  39.7132599
  -8.5677906  39.1279280  40.1912599  -1.8707906  42.8199280  28.3692599
  -2.2307906  42.3419280  27.6222599  -1.2887906  43.4719280  27.9782599
   1.3002094  40.1709280  38.7292599   1.9682094  39.8659280  38.1152599
   1.5932094  41.0449280  38.9872599 -22.1297906  42.9169280  37.1942599
 -21.9907906  42.7709280  36.2592599 -21.9357906  43.8449280  37.3242599
  -1.6187906  43.4359280  35.0222599  -2.4627906  43.6999280  35.3872599
  -1.5567906  42.4999280  35.2122599   3.7312094  44.0149280  36.5532599
   3.0082094  43.4019280  36.4202599   4.5102094  43.5299280  36.2802599
 -20.1637906  45.5079280  33.9442599 -19.8967906  46.3199280  33.5122599
 -20.7087906  45.0599280  33.2962599   4.1962094  46.1899280  31.5242599
   4.3512094  46.0029280  32.4502599   3.3622094  45.7609280  31.3302599
  -0.6257906  45.7849280  33.8482599  -0.1797906  45.6659280  33.0102599
  -0.8277906  44.8959280  34.1412599 -21.0987906  43.1839280  14.8412599
 -21.4197906  42.7669280  14.0412599 -21.7267906  42.9249280  15.5152599
   5.0762094  41.3749280  11.4032599   4.3262094  40.8019280  11.5642599
   4.7582094  42.2519280  11.6142599  -5.2237906  44.3809280  32.4792599
  -4.8857906  43.4869280  32.5292599  -4.5727906  44.8559280  31.9622599
  -4.1797906  42.2289280  38.3132599  -3.3667906  41.7309280  38.2282599
  -4.2267906  42.4559280  39.2422599  -2.7447906  45.0379280  31.2912599
  -2.4017906  44.1759280  31.0562599  -1.9657906  45.5729280  31.4432599
   6.6012094  41.6019280  26.6862599   6.4242094  40.8209280  27.2112599
   6.0942094  42.2949280  27.1102599  -4.9327906  46.0609280  34.7362599
  -5.0547906  45.1119280  34.7062599  -5.7967906  46.4069280  34.9622599
   7.0372094  41.0299280  39.3222599   6.4992094  41.3599280  40.0412599
   6.9072094  41.6619280  38.6152599   1.1882094  43.1429280  15.6852599
   1.0722094  42.9589280  14.7532599   1.4352094  42.3009280  16.0672599
   5.8852094  43.4169280  34.5872599   6.4162094  44.1009280  34.9962599
   6.4582094  42.6509280  34.5622599 -20.2957906  42.2269280  39.6082599
 -20.4727906  43.1659280  39.6512599 -20.8077906  41.9189280  38.8602599
   0.2842094  45.5299280  31.3462599   0.7592094  46.2259280  30.8922599
   0.7702094  44.7319280  31.1362599 -22.6917906  45.6099280  35.6502599
 -21.8117906  45.7439280  35.2962599 -23.1347906  46.4479280  35.5152599
  -1.5297906  42.6489280  20.8512599  -0.6417906  42.8669280  21.1342599
  -1.8557906  43.4529280  20.4452599 -16.7607906  44.4749280  23.6042599
 -16.0507906  44.3619280  22.9722599 -16.8327906  45.4219280  23.7182599
   1.3012094  42.1519280  31.7372599   1.7752094  42.9119280  31.3982599
   1.7292094  41.9549280  32.5702599  -9.0707906  44.8889280  26.2532599
  -8.5677906  45.2839280  25.5412599  -9.3847906  45.6339280  26.7662599
  -5.5967906  40.6779280  24.8772599  -5.3557906  40.1199280  25.6172599
  -5.8167906  41.5209280  25.2742599 -16.6367906  42.0819280  34.4752599
 -15.7807906  41.8699280  34.8482599 -17.1857906  42.2809280  35.2332599
   4.6612094  46.7319280  17.9912599   4.2662094  47.4919280  17.5632599
   4.6402094  46.0449280  17.3252599 -18.1737906  46.6419280  10.9752599
 -18.2627906  47.5779280  11.1542599 -17.2327906  46.4759280  11.0302599
 -19.2337906  43.7299280  25.3372599 -18.5257906  44.1829280  24.8782599
 -19.9657906  44.3469280  25.3182599  -8.4447906  47.0309280  31.1052599
  -8.3857906  47.9829280  31.1822599  -8.4147906  46.8639280  30.1632599
 -21.1027906  42.9949280  27.9762599 -21.5447906  42.5489280  27.2532599
 -21.7317906  43.6529280  28.2722599 -19.0267906  41.5749280  16.1552599
 -18.0727906  41.6519280  16.1882599 -19.3097906  42.3199280  15.6252599
  -3.2587906  38.4949280  27.8512599  -2.9607906  38.7849280  26.9892599
  -4.1327906  38.8729280  27.9432599  -6.5757906  41.0289280  17.6502599
  -6.3147906  40.1529280  17.3672599  -5.7557906  41.4559280  17.8962599
  -4.9577906  42.0849280  19.4372599  -4.7907906  43.0149280  19.5932599
  -5.1177906  41.7199280  20.3072599  -1.1137906  38.4479280  30.0202599
  -0.5017906  38.2339280  29.3152599  -1.8567906  38.8569280  29.5762599
  -1.6987906  40.5469280  15.3532599  -1.7017906  41.0959280  16.1382599
  -1.2517906  41.0759280  14.6922599   2.4162094  41.6829280  23.0242599
   2.0432094  41.0759280  22.3852599   3.2722094  41.9149280  22.6642599
   2.7032094  40.5769280  12.8882599   1.8842094  41.0699280  12.8432599
   2.4662094  39.7549280  13.3172599 -11.0177906  42.6169280  26.0802599
 -11.7547906  42.8229280  26.6562599 -10.3157906  43.1979280  26.3722599
  -6.7657906  42.9999280  26.3852599  -6.7317906  42.9459280  27.3402599
  -7.3597906  43.7299280  26.2082599   4.5442094  39.6159280  16.8812599
   4.8182094  40.0989280  16.1012599   5.2012094  38.9269280  16.9802599
 -22.6837906  38.7149280  16.7582599 -22.6787906  38.6429280  15.8032599
 -22.1387906  37.9869280  17.0562599  -5.0097906  39.9339280  12.6292599
  -4.9947906  39.7439280  13.5672599  -4.8167906  39.0939280  12.2112599
 -14.9667906  43.0899280  39.4452599 -14.5917906  43.1749280  40.3212599
 -15.4497906  42.2639280  39.4692599  -1.7207906  41.2829280  38.3322599
  -1.1837906  40.7019280  38.8712599  -1.1067906  41.9389280  38.0012599
   6.9262094  39.6859280  33.3412599   7.1592094  39.0339280  32.6802599
   5.9842094  39.5709280  33.4702599   3.8152094  43.6049280  40.7702599
   2.9912094  43.2079280  40.4882599   3.8102094  44.4749280  40.3712599
   3.3042094  39.1129280  37.1532599   3.0742094  38.5239280  36.4352599
   4.0972094  38.7329280  37.5312599 -19.0167906  41.0759280  12.1502599
 -19.6537906  41.5339280  11.6012599 -19.5437906  40.4899280  12.6922599
  -2.0747906  42.3379280  30.8612599  -1.9497906  42.3879280  29.9142599
  -1.2037906  42.4889280  31.2272599  -5.9767906  39.6459280  37.7042599
  -5.3367906  39.0309280  38.0642599  -5.6897906  40.5029280  38.0192599
   1.1452094  40.1029280  33.9762599   0.2712094  40.3819280  34.2512599
   1.1882094  39.1769280  34.2152599   6.5452094  44.9019280  32.3562599
   6.1562094  44.6069280  31.5332599   6.2132094  44.2889280  33.0122599
  -0.4967906  39.0389280  10.6342599   0.0362094  38.7619280  11.3792599
   0.1392094  39.2529280   9.9512599 -20.7487906  40.8779280  30.2542599
 -20.7767906  41.5369280  29.5602599 -21.4207906  40.2419280  30.0092599
 -21.9437906  44.6529280  11.5192599 -21.6147906  45.1069280  10.7432599
 -21.1997906  44.6339280  12.1202599 -16.9337906  45.4049280  49.3152599
 -17.3987906  44.6079280  49.0622599 -16.9097906  45.9319280  48.5162599
   5.2242094  43.9989280  46.1632599   4.2842094  44.1189280  46.0272599
   5.4032094  43.1149280  45.8442599 -21.2237906  46.3039280  45.7522599
 -20.8997906  45.5159280  45.3172599 -20.4377906  46.7299280  46.0952599
 -14.4587906  44.8199280  44.1162599 -13.7947906  45.3419280  43.6662599
 -14.8247906  45.4129280  44.7732599  -0.3577906  42.0409280  43.2782599
  -1.1307906  42.0109280  42.7142599  -0.0147906  42.9279280  43.1672599
 -16.8057906  39.3159280  45.0772599 -15.9567906  38.9069280  44.9082599
 -16.6517906  40.2509280  44.9452599 -10.6217906  41.4629280  47.2632599
 -10.2297906  41.9429280  47.9932599  -9.9867906  40.7759280  47.0582599
 -10.1967906  41.1779280  43.2602599 -10.5647906  41.5479280  42.4582599
  -9.5377906  41.8149280  43.5382599 -12.6697906  46.9799280  43.5602599
 -12.0127906  47.0409280  42.8672599 -12.2187906  47.2889280  44.3462599
 -14.3107906  42.5739280  49.2262599 -13.9497906  42.8899280  48.3982599
 -13.8317906  41.7639280  49.4032599 -18.6407906  46.4759280  47.1722599
 -19.2127906  46.7669280  47.8822599 -18.4897906  47.2619280  46.6472599
 -13.0407906  41.3199280  46.2552599 -12.1917906  41.1709280  46.6732599
 -13.0127906  40.7909280  45.4582599  -3.8217906  46.7829280  46.5832599
  -2.9037906  46.8139280  46.8542599  -3.9677906  45.8709280  46.3342599
  -9.3687906  38.9999280  45.7392599  -8.5517906  38.9789280  46.2362599
  -9.0947906  38.9459280  44.8232599  -8.0807906  43.4659280  47.3502599
  -7.5247906  42.6899280  47.2812599  -7.5447906  44.1049280  47.8202599
  -4.8487906  43.2139280  40.9482599  -5.7607906  43.4819280  41.0642599
  -4.6147906  42.7949280  41.7772599 -16.4307906  42.3139280  46.8922599
 -15.9887906  42.5969280  47.6922599 -16.0357906  42.8439280  46.1992599
  -4.9557906  44.2329280  46.9342599  -4.0387906  44.0479280  46.7322599
  -5.4447906  43.8429280  46.2102599 -17.4367906  44.2869280  45.1542599
 -16.8747906  45.0289280  44.9312599 -17.6857906  44.4399280  46.0662599
  -5.7537906  42.7269280  44.3082599  -5.4897906  41.8639280  44.6272599
  -6.4797906  42.5489280  43.7092599   6.0182094  45.7079280  42.9022599
   6.0572094  45.4139280  43.8122599   6.7272094  45.2329280  42.4672599
 -12.6927906  40.1989280  44.0262599 -13.2427906  40.2699280  43.2452599
 -11.8387906  40.5299280  43.7482599 -15.6017906  46.4419280  46.0002599
 -16.1707906  47.1939280  46.1652599 -14.8437906  46.5849280  46.5662599
  -6.9787906  41.7469280  42.1072599  -6.4197906  40.9709280  42.0692599
  -7.3237906  41.8379280  41.2192599  -8.9527906  45.1749280  43.0842599
  -9.7447906  45.6379280  42.8082599  -9.2617906  44.5299280  43.7202599
  -9.7217906  43.5619280  45.2782599  -9.1297906  43.5529280  46.0302599
 -10.4147906  42.9439280  45.5112599 -13.6457906  43.8739280  46.3622599
 -13.9617906  44.1069280  45.4892599 -13.3937906  42.9539280  46.2892599
  -2.7267906  41.4679280  42.0322599  -2.3797906  40.7839280  41.4592599
  -3.5877906  41.1439280  42.2972599  -9.1687906  38.8789280  42.4612599
  -9.9497906  38.6559280  41.9552599  -9.1637906  39.8359280  42.4872599
 -19.6387906  39.0189280  45.1882599 -18.6837906  39.0859280  45.1822599
 -19.9347906  39.8439280  45.5722599 -14.4547906  42.6139280  42.4742599
 -14.3637906  43.2569280  43.1772599 -15.2757906  42.1599280  42.6682599
 -19.3717906  44.6169280  42.5192599 -18.8097906  45.2839280  42.1242599
 -18.8367906  44.2349280  43.2152599 -22.6757906  41.9949280  46.4512599
 -22.8207906  41.0809280  46.2092599 -22.7397906  42.0029280  47.4062599
  -4.3257906  46.4639280  42.2212599  -3.6127906  46.8179280  42.7522599
  -4.7617906  47.2359280  41.8592599 -13.7267906  39.6119280  41.7892599
 -14.4107906  38.9419280  41.7652599 -14.1397906  40.3899280  41.4162599
  -8.1417906  46.2319280  45.9692599  -7.4497906  46.1109280  45.3192599
  -8.4127906  45.3429280  46.1982599 -10.5697906  44.7819280  48.4912599
  -9.7487906  44.3549280  48.2482599 -11.2357906  44.3379280  47.9662599
   4.9482094  41.2209280  44.5632599   5.4032094  40.4539280  44.2152599
   4.2282094  41.3709280  43.9512599  -6.9427906  45.4529280  41.2742599
  -7.6097906  45.2879280  41.9412599  -6.3557906  46.0929280  41.6752599
   2.6382094  45.4059280  46.1132599   2.0732094  44.6429280  45.9922599
   2.9512094  45.6149280  45.2322599  -6.1047906  45.4419280  44.5002599
  -5.6157906  45.9509280  43.8532599  -6.0277906  44.5359280  44.2002599
   6.7202094  39.1359280  43.9902599   7.3832094  39.1989280  43.3032599
   6.3302094  38.2699280  43.8682599 -22.2537906  41.8729280  42.7202599
 -21.9087906  42.3779280  41.9842599 -23.1927906  41.8059280  42.5462599
 -22.7817906  44.7709280  47.9032599 -23.3597906  44.3299280  47.2792599
 -22.1037906  45.1729280  47.3592599 -10.7717906  42.2249280  40.9232599
 -11.3637906  42.9479280  40.7162599 -10.0967906  42.2659280  40.2452599
 -16.7467906  41.9409280  43.9492599 -17.0997906  42.8049280  44.1632599
 -17.4367906  41.5219280  43.4342599  -2.6497906  41.6849280  47.7882599
  -2.0237906  41.1189280  48.2412599  -3.3837906  41.7659280  48.3962599
   1.6182094  46.6689280  40.7802599   2.1872094  47.2689280  40.2982599
   2.1372094  46.4049280  41.5402599  -2.3667906  44.1609280  46.5652599
  -2.1227906  43.3749280  47.0532599  -1.5317906  44.5359280  46.2822599
   1.9752094  40.5509280  46.5132599   1.3712094  39.8079280  46.5262599
   2.8452094  40.1519280  46.5182599   1.6922094  42.2219280  48.9512599
   1.8532094  41.5619280  48.2772599   2.5562094  42.3989280  49.3252599
   4.4252094  43.4059280  48.6752599   4.5782094  44.3269280  48.8882599
   4.7482094  43.3109280  47.7792599   0.2082094  46.8699280  44.1192599
   0.4022094  47.8059280  44.0642599   0.6252094  46.5859280  44.9332599
  -4.4157906  40.2029280  45.1212599  -4.6407906  39.4679280  45.6912599
  -3.4597906  40.2429280  45.1482599   0.2752094  44.4809280  42.9002599
   0.3052094  45.3989280  43.1692599  -0.2357906  44.4839280  42.0912599
 -14.8897906  39.3649280  47.6752599 -14.4267906  39.8399280  48.3652599
 -15.2007906  40.0479280  47.0812599   3.2502094  44.6379280  43.4872599
   3.9632094  44.9119280  42.9102599   2.6632094  44.1369280  42.9212599
 -21.0987906  43.1839280  44.8412599 -21.4197906  42.7669280  44.0412599
 -21.7267906  42.9249280  45.5152599   5.0762094  41.3749280  41.4032599
   4.3262094  40.8019280  41.5642599   4.7582094  42.2519280  41.6142599
   1.1882094  43.1429280  45.6852599   1.0722094  42.9589280  44.7532599
   1.4352094  42.3009280  46.0672599   4.6612094  46.7319280  47.9912599
   4.2662094  47.4919280  47.5632599   4.6402094  46.0449280  47.3252599
 -18.1737906  46.6419280  40.9752599 -18.2627906  47.5779280  41.1542599
 -17.2327906  46.4759280  41.0302599 -19.0267906  41.5749280  46.1552599
 -18.0727906  41.6519280  46.1882599 -19.3097906  42.3199280  45.6252599
  -6.5757906  41.0289280  47.6502599  -6.3147906  40.1529280  47.3672599
  -5.7557906  41.4559280  47.8962599  -1.6987906  40.5469280  45.3532599
  -1.7017906  41.0959280  46.1382599  -1.2517906  41.0759280  44.6922599
   2.7032094  40.5769280  42.8882599   1.8842094  41.0699280  42.8432599
   2.4662094  39.7549280  43.3172599   4.5442094  39.6159280  46.8812599
   4.8182094  40.0989280  46.1012599   5.2012094  38.9269280  46.9802599
 -22.6837906  38.7149280  46.7582599 -22.6787906  38.6429280  45.8032599
 -22.1387906  37.9869280  47.0562599  -5.0097906  39.9339280  42.6292599
  -4.9947906  39.7439280  43.5672599  -4.8167906  39.0939280  42.2112599
 -19.0167906  41.0759280  42.1502599 -19.6537906  41.5339280  41.6012599
 -19.5437906  40.4899280  42.6922599  -0.4967906  39.0389280  40.6342599
   0.0362094  38.7619280  41.3792599   0.1392094  39.2529280  39.9512599
 -21.9437906  44.6529280  41.5192599 -21.6147906  45.1069280  40.7432599
 -21.1997906  44.6339280  42.1202599  26.5892094  -4.5600720 -15.9237401
  26.4942094  -5.4380720 -15.5537401  25.8242094  -4.4550720 -16.4887401
  28.4752094 -16.3010720  10.5452599  27.7282094 -16.6100720  11.0582599
  28.1072094 -15.6380720   9.9612599  14.1512094   5.7099280 -15.2527401
  13.4462094   5.1529280 -14.9227401  14.1762094   6.4489280 -14.6447401
  28.3122094 -20.4150720   2.3492599  28.1522094 -21.2640720   1.9372599
  28.8222094 -19.9260720   1.7032599  19.0722094  -9.5960720  -7.3047401
  18.4772094 -10.3190720  -7.1057401  19.9442094  -9.9880720  -7.2767401
  13.0662094 -14.5950720 -10.6847401  12.6012094 -15.3920720 -10.9377401
  13.0902094 -14.0680720 -11.4837401  22.2922094  -3.7360720  -3.7807401
  21.4812094  -3.9180720  -4.2557401  22.9772094  -3.7920720  -4.4477401
   7.8232094  -7.4910720 -10.8497401   7.0002094  -7.1710720 -11.2217401
   8.0962094  -8.1920720 -11.4407401  26.0432094  -2.9510720 -10.1017401
  25.6562094  -3.3920720  -9.3447401  25.3362094  -2.4080720 -10.4497401
  16.2512094 -12.8820720  -1.5597401  15.6452094 -13.3150720  -0.9577401
  16.5812094 -13.5880720  -2.1157401  18.4132094 -10.2160720 -13.6817401
  17.8292094  -9.7660720 -13.0717401  18.8662094 -10.8670720 -13.1457401
  24.6542094  -6.3370720  -1.4777401  25.1352094  -6.4200720  -0.6537401
  25.3192094  -6.4560720  -2.1557401  29.2672094 -12.0600720 -13.0497401
  29.1782094 -11.8260720 -13.9737401  29.9262094 -11.4530720 -12.7117401
  12.8022094  -7.8780720 -10.4357401  12.9522094  -7.8470720  -9.4907401
  11.9412094  -7.4780720 -10.5557401  36.4952094  -2.6040720  -4.1837401
  36.8352094  -2.0310720  -3.4957401  37.0852094  -2.4660720  -4.9247401
   9.7202094 -14.4010720   9.4612599  10.4612094 -13.9890720   9.9072599
  10.0502094 -14.6040720   8.5862599  20.1182094   3.9879280  -5.1877401
  21.0512094   3.7959280  -5.2767401  19.7112094   3.5569280  -5.9387401
  35.2242094 -16.0010720 -13.8367401  34.2842094 -15.8810720 -13.9727401
  35.4032094 -16.8850720 -14.1557401  25.5502094  -0.2050720 -18.7047401
  24.8962094   0.4849280 -18.8187401  25.4662094  -0.7470720 -19.4887401
  17.8722094  -5.5800720 -12.7207401  18.3212094  -4.7390720 -12.6367401
  17.0642094  -5.4710720 -12.2187401  25.6192094 -16.7070720   5.6602599
  25.3022094 -17.0500720   6.4952599  25.5592094 -17.4480720   5.0572599
  35.9872094 -11.6250720  -3.6127401  35.0482094 -11.5640720  -3.7867401
  36.0442094 -11.9680720  -2.7207401   9.5762094  -0.7940720 -15.5397401
  10.3692094  -0.2580720 -15.5387401   9.8602094  -1.6440720 -15.2037401
  25.1652094  -7.1080720  -8.7207401  24.4392094  -7.2000720  -9.3377401
  24.8912094  -7.6080720  -7.9517401  20.7172094  -6.8860720 -18.8507401
  20.0882094  -7.5870720 -18.6797401  20.2652094  -6.3010720 -19.4587401
  24.1202094   0.4639280  -6.0187401  24.4652094   1.3399280  -6.1877401
  24.8502094  -0.1240720  -6.2127401  18.9472094   1.5539280 -10.8427401
  18.8772094   2.3179280 -11.4137401  19.2632094   0.8539280 -11.4147401
  21.7182094   4.4849280 -17.4947401  22.3422094   4.4789280 -18.2207401
  22.1592094   3.9999280 -16.7967401   8.7762094 -13.6960720 -14.2477401
   9.1002094 -14.4840720 -14.6827401   9.5622094 -13.2700720 -13.9047401
  11.5652094 -19.8690720  -2.7477401  10.6342094 -19.7320720  -2.9217401
  11.9552094 -19.9930720  -3.6127401  24.1652094  -7.1830720   8.9992599
  25.0072094  -7.5810720   9.2202599  24.3282094  -6.7180720   8.1782599
  18.2062094 -19.3830720  -1.2397401  17.9442094 -18.4620720  -1.2467401
  18.8792094 -19.4360720  -0.5617401  22.3422094 -20.8840720 -10.5137401
  21.9522094 -20.1360720 -10.9657401  22.2772094 -21.6040720 -11.1407401
  22.6062094  -7.5290720  -6.2907401  21.9972094  -7.5830720  -5.5537401
  22.0552094  -7.3080720  -7.0417401  14.0622094   5.3619280  -9.6277401
  14.2792094   6.2449280  -9.3297401  14.2042094   5.3859280 -10.5737401
  19.4642094 -12.4880720   7.5742599  19.0632094 -11.7370720   7.1382599
  20.1732094 -12.1120720   8.0962599  35.7222094  -5.9930720 -11.7427401
  35.6362094  -5.4150720 -12.5007401  35.3752094  -5.4830720 -11.0107401
  15.5412094 -15.1800720 -15.8837401  16.2052094 -14.6580720 -16.3337401
  15.1752094 -14.5870720 -15.2267401  31.5722094 -12.1530720  -2.0207401
  31.9082094 -13.0460720  -2.0907401  31.4782094 -12.0050720  -1.0797401
  14.9812094  -7.7940720 -12.2937401  14.3462094  -8.0550720 -11.6267401
  15.5522094  -8.5560720 -12.3927401  16.2732094 -18.7570720  -7.0847401
  16.4532094 -18.3010720  -7.9067401  16.9602094 -18.4580720  -6.4877401
  23.0382094  -7.5710720 -10.3747401  22.3522094  -6.9980720 -10.7167401
  22.5892094  -8.3930720 -10.1777401  29.6422094 -17.9590720 -16.7217401
  28.8692094 -17.9890720 -17.2857401  29.9852094 -17.0720720 -16.8327401
  28.4162094  -1.0630720  -4.4387401  28.0632094  -0.5260720  -3.7287401
  29.1352094  -0.5430720  -4.7987401  14.3952094 -13.3610720  10.4662599
  14.5472094 -12.8220720  11.2422599  15.2522094 -13.4230720  10.0452599
  18.3792094   4.7329280 -17.8277401  18.4382094   5.6829280 -17.7257401
  18.8262094   4.3809280 -17.0587401  11.8742094 -17.9530720  -7.0387401
  11.0212094 -17.6140720  -7.3127401  12.4182094 -17.1730720  -6.9317401
  20.3342094  -9.2450720   7.6722599  20.7612094  -9.5170720   6.8592599
  21.0492094  -9.1600720   8.3022599  22.7582094 -17.0620720   3.8222599
  23.3102094 -16.4210720   3.3742599  22.4542094 -17.6450720   3.1272599
  21.7202094  -2.0380720 -11.5787401  21.2082094  -2.6030720 -11.0007401
  21.0942094  -1.3840720 -11.8907401  12.1042094  -7.4840720 -13.3317401
  12.4302094  -8.2830720 -12.9167401  11.5832094  -7.0560720 -12.6527401
  19.1292094 -16.6330720  -0.9547401  19.9982094 -16.2470720  -1.0617401
  18.9532094 -16.5720720  -0.0157401  10.1872094   2.1569280 -14.3927401
   9.7472094   1.5669280 -13.7807401  10.9782094   1.6859280 -14.6547401
  16.5782094 -15.5660720  -5.8257401  15.6552094 -15.7430720  -5.6447401
  16.7322094 -15.9540720  -6.6867401  19.9142094 -16.8220720  -6.3507401
  20.7432094 -17.2880720  -6.4627401  19.5572094 -17.1630720  -5.5297401
  18.1062094  -6.0490720  -7.4847401  17.2582094  -6.4560720  -7.6607401
  17.9162094  -5.1120720  -7.4297401  18.4652094 -12.9120720 -10.0357401
  18.5282094 -13.6210720  -9.3947401  17.8602094 -12.2850720  -9.6417401
  14.5642094   7.2479280 -17.7057401  13.8682094   6.7229280 -18.1007401
  14.4742094   7.0959280 -16.7647401  22.8772094  -2.9570720 -14.8367401
  23.0542094  -2.9610720 -15.7767401  23.4352094  -3.6510720 -14.4847401
  13.1942094 -20.6840720 -14.9227401  14.0432094 -21.0930720 -15.0917401
  13.3482094 -19.7490720 -15.0547401  16.5992094 -12.8430720 -12.8217401
  17.0882094 -13.1090720 -12.0427401  17.2062094 -12.2820720 -13.3047401
  16.2602094 -11.4830720  -9.4067401  16.4962094 -11.2430720  -8.5107401
  15.3272094 -11.6940720  -9.3607401  15.8502094   1.5209280 -13.6587401
  16.3512094   1.1389280 -12.9377401  16.4922094   1.6459280 -14.3577401
  19.3782094 -18.5370720 -12.7367401  19.7702094 -18.0570720 -12.0067401
  20.0132094 -19.2240720 -12.9417401   9.9512094 -11.2430720  -3.4467401
   9.3852094 -10.7710720  -4.0577401   9.3452094 -11.6960720  -2.8597401
  10.9802094 -15.6350720  -0.8397401  11.7232094 -16.1700720  -1.1177401
  10.2292094 -16.0100720  -1.3007401  14.4522094 -16.0770720  -8.6157401
  13.8372094 -15.4990720  -9.0677401  14.8282094 -16.6180720  -9.3097401
  11.6772094 -17.2490720 -10.7747401  11.0062094 -17.8870720 -10.5347401
  11.9392094 -17.4970720 -11.6607401  25.3932094 -10.3670720  -8.2937401
  25.9772094 -10.4060720  -9.0507401  24.5162094 -10.4700720  -8.6607401
  19.8032094 -18.8220720 -16.7397401  19.4352094 -18.4520720 -17.5417401
  20.4622094 -18.1850720 -16.4617401  30.8662094  -2.3130720   6.2372599
  30.1322094  -2.6180720   6.7692599  31.2622094  -1.6110720   6.7542599
  20.7922094 -11.8710720 -16.2177401  21.2692094 -12.6180720 -15.8577401
  21.4082094 -11.1400720 -16.1547401  17.8682094 -10.2790720 -18.9107401
  18.1502094  -9.5990720 -19.5227401  17.7812094  -9.8250720 -18.0717401
  13.3852094   7.2219280 -11.9937401  12.8102094   7.7579280 -11.4487401
  14.1262094   7.7929280 -12.1967401  22.8262094 -14.9520720 -10.3987401
  22.8072094 -14.9520720  -9.4417401  23.7282094 -14.7180720 -10.6197401
  23.3502094  -1.2360720  -9.5447401  23.0842094  -1.4600720 -10.4357401
  22.9822094  -1.9330720  -9.0017401  26.0242094  -1.8750720  -5.6967401
  26.8402094  -1.7560720  -5.2117401  26.2302094  -1.5930720  -6.5877401
  29.3462094  -9.5830720 -10.6917401  29.3902094  -8.6320720 -10.7837401
  30.0052094  -9.9150720 -11.3017401   8.7632094 -19.7270720  -7.0067401
   8.8572094 -20.1660720  -7.8517401   8.9682094 -18.8100720  -7.1877401
  19.8182094  -8.4180720  -5.0517401  19.4502094  -8.2260720  -5.9147401
  20.1692094  -9.3050720  -5.1327401  17.3302094 -13.0200720 -16.4397401
  17.9872094 -12.9590720 -17.1327401  17.7812094 -12.7110720 -15.6537401
  17.1602094 -19.9430720 -10.2197401  18.0732094 -19.7800720 -10.4567401
  17.2032094 -20.3090720  -9.3367401  19.7032094 -12.1720720 -12.3417401
  20.1112094 -12.6080720 -13.0907401  19.8052094 -12.7910720 -11.6187401
  27.8692094  -7.0090720  -8.5277401  27.6572094  -6.5920720  -7.6927401
  27.0182094  -7.2080720  -8.9187401  25.4382094 -10.7510720   8.2112599
  25.1272094 -10.6910720   7.3082599  26.3862094 -10.6370720   8.1472599
  11.6572094 -14.5730720   1.7092599  11.5632094 -14.8470720   0.7962599
  11.6472094 -13.6170720   1.6752599  23.9862094 -12.7270720   2.5272599
  23.3132094 -13.3010720   2.1612599  24.5712094 -13.3160720   3.0032599
  24.5212094 -20.2490720  -2.0137401  24.3332094 -19.3990720  -1.6157401
  23.7792094 -20.8000720  -1.7657401  20.6282094  -5.3910720 -10.8817401
  20.5662094  -5.6230720 -11.8077401  19.9672094  -4.7100720 -10.7597401
  15.6892094 -17.4260720 -10.7737401  16.0502094 -17.1100720 -11.6017401
  16.1682094 -18.2360720 -10.5967401  11.3592094 -13.5240720 -12.8277401
  10.7872094 -13.2330720 -12.1177401  11.5102094 -12.7380720 -13.3527401
  28.1182094 -13.4420720  -1.5327401  27.6772094 -13.1240720  -0.7447401
  28.4832094 -12.6550720  -1.9377401  10.7342094   7.6309280  -4.9977401
  10.6402094   7.1669280  -5.8297401  11.2652094   8.3989280  -5.2097401
  14.8332094  -5.9750720 -18.8247401  15.3252094  -6.6580720 -18.3697401
  15.3372094  -5.1750720 -18.6747401  16.9592094 -18.6800720 -13.7447401
  17.8082094 -18.8290720 -13.3267401  16.9872094 -19.2090720 -14.5417401
  32.1322094 -10.8550720   3.0482599  31.5932094 -11.4240720   3.5972599
  31.5352094 -10.1650720   2.7572599  20.1792094 -15.4850720   1.5192599
  20.4542094 -14.5710720   1.4482599  20.6422094 -15.8150720   2.2892599
  21.1792094 -11.5450720   9.7102599  21.9062094 -12.1050720   9.9822599
  21.5412094 -11.0100720   9.0032599  22.1942094 -14.4470720   8.6622599
  22.4192094 -14.5220720   9.5892599  21.3372094 -14.8670720   8.5882599
  26.9632094  -4.5430720 -12.5927401  26.8132094  -3.7680720 -13.1327401
  26.3172094  -4.4750720 -11.8897401  32.1142094  -6.2440720  -9.7987401
  32.5032094  -6.9770720  -9.3207401  32.5152094  -6.2830720 -10.6667401
  12.9292094 -10.0140720  -7.0997401  12.6972094  -9.7950720  -6.1967401
  13.7722094  -9.5840720  -7.2407401  36.2582094 -19.1960720  -5.8057401
  36.3772094 -18.8410720  -4.9247401  37.1472094 -19.3370720  -6.1307401
  22.5342094 -13.7020720  -5.8157401  22.6932094 -14.4220720  -6.4257401
  23.4072094 -13.4360720  -5.5267401  21.1292094   6.1829280  -8.1807401
  20.7992094   6.0729280  -7.2887401  20.4002094   6.5789280  -8.6587401
   9.6632094  -8.1310720  -7.8687401  10.1542094  -8.2460720  -7.0547401
   9.5802094  -7.1820720  -7.9657401  11.2682094 -10.5920720  -9.1947401
  10.5452094  -9.9810720  -9.0577401  11.8742094 -10.4120720  -8.4747401
   9.6572094 -19.2950720  -9.8997401   9.1082094 -18.5570720 -10.1667401
   9.0692094 -20.0500720  -9.9187401  10.2072094  -5.4740720  -7.7897401
  10.1622094  -5.4040720  -6.8357401  10.2962094  -4.5700720  -8.0927401
  19.7612094  -7.3730720  -2.6447401  19.8752094  -7.8190720  -3.4847401
  20.5802094  -6.8950720  -2.5137401  22.8982094  -9.5010720   8.6392599
  23.7352094  -9.9610720   8.7122599  23.1002094  -8.5970720   8.8812599
  16.6822094  -5.6330720 -15.5117401  16.9532094  -5.7650720 -14.6027401
  17.0932094  -4.8070720 -15.7667401  15.2072094 -20.5130720  -5.3227401
  15.3742094 -19.7600720  -5.8897401  15.7722094 -20.3700720  -4.5617401
  19.5172094   1.8749280 -15.3537401  18.7582094   1.3589280 -15.6247401
  20.2622094   1.4419280 -15.7697401  11.0432094   6.7029280 -13.2757401
  10.7202094   7.5579280 -13.5607401  11.9272094   6.8749280 -12.9537401
  26.1782094 -13.2170720 -13.4167401  27.0962094 -13.1860720 -13.1457401
  26.0322094 -14.1290720 -13.6657401  12.9902094  -5.4860720 -15.0737401
  13.7822094  -5.9220720 -15.3877401  12.8052094  -5.9030720 -14.2317401
  22.8222094  -9.9130720 -15.6627401  23.6422094 -10.3900720 -15.5397401
  22.6512094  -9.5050720 -14.8127401  20.8082094  -6.5060720  -8.1297401
  20.0232094  -6.1940720  -7.6797401  20.6882094  -6.2330720  -9.0387401
  16.0752094  -1.1480720 -17.7867401  15.4702094  -1.7860720 -17.4087401
  15.9592094  -0.3620720 -17.2527401  20.6312094 -21.0000720 -14.2607401
  21.4482094 -21.0210720 -13.7637401  20.9052094 -21.0540720 -15.1767401
  15.3182094  -4.2420720  -9.7017401  15.2992094  -3.3240720  -9.9747401
  15.1842094  -4.2130720  -8.7547401  19.0482094 -12.6930720 -18.5677401
  18.6602094 -11.8620720 -18.8397401  19.9922094 -12.5380720 -18.5937401
  15.9692094  -6.7370720  -8.8737401  15.0862094  -6.8920720  -8.5367401
  15.9172094  -5.8780720  -9.2937401  32.9632094  -5.9870720  -3.7907401
  33.7822094  -6.1120720  -4.2697401  33.0182094  -6.6000720  -3.0577401
  21.9192094 -16.5340720 -12.6497401  22.4752094 -17.3100720 -12.7187401
  22.4552094 -15.8950720 -12.1797401  21.9892094  -6.0710720  -2.5247401
  22.1002094  -5.2630720  -3.0257401  22.8602094  -6.2580720  -2.1747401
  25.9932094  -2.9190720  10.1562599  26.3612094  -3.8010720  10.1052599
  26.6852094  -2.3500720   9.8192599  34.6402094  -9.0830720  -6.7347401
  34.1552094  -9.9030720  -6.6477401  35.5032094  -9.3470720  -7.0537401
  26.9912094 -10.6110720 -10.5667401  27.8942094 -10.3020720 -10.6447401
  26.4762094  -9.9750720 -11.0637401  20.8632094  -9.5240720 -11.0747401
  20.1452094  -9.1170720 -10.5887401  20.5782094 -10.4270720 -11.2117401
  11.6192094 -21.5940720 -10.2337401  12.1412094 -21.2350720  -9.5167401
  10.8952094 -20.9760720 -10.3367401  10.3852094  -6.2770720 -11.3907401
   9.7872094  -6.1500720 -12.1267401   9.9132094  -6.8570720 -10.7947401
  20.6792094 -11.3160720  -3.9647401  21.3052094 -10.6020720  -3.8447401
  21.1982094 -12.0290720  -4.3397401  35.9892094 -14.8120720  -4.2687401
  35.7822094 -15.2240720  -5.1067401  35.1652094 -14.4130720  -3.9877401
   9.3812094 -19.1310720  -4.3657401   9.1732094 -19.5490720  -5.2017401
   9.9462094 -18.3940720  -4.6007401  27.5412094 -20.3720720  -4.9917401
  28.4322094 -20.4990720  -5.3177401  27.5152094 -19.4550720  -4.7167401
  20.1402094  -3.3730720 -14.6747401  20.0132094  -3.0860720 -13.7707401
  21.0732094  -3.2370720 -14.8407401  18.3952094  -8.3330720  -9.7547401
  18.6802094  -8.3780720  -8.8427401  17.6562094  -7.7250720  -9.7457401
  12.4762094  -4.9670720 -18.1417401  13.3852094  -5.1630720 -17.9127401
  12.2822094  -5.5530720 -18.8727401  13.1482094 -20.2680720  -8.5467401
  13.8962094 -19.6730720  -8.5027401  12.3892094 -19.7140720  -8.3627401
  21.2242094 -12.2620720  -9.3537401  20.2732094 -12.3360720  -9.4357401
  21.5642094 -13.0450720  -9.7877401  21.0282094  -5.5710720   0.5292599
  20.5702094  -5.9580720  -0.2167401  21.3402094  -4.7250720   0.2052599
  25.1132094  -7.6690720  -5.2457401  24.1602094  -7.6490720  -5.1657401
  25.4322094  -7.4200720  -4.3777401  25.1512094 -16.7860720 -19.0517401
  24.2392094 -16.5180720 -18.9357401  25.3852094 -17.2050720 -18.2227401
  13.2692094  -9.8080720 -16.2597401  12.4492094  -9.3150720 -16.2967401
  13.9072094  -9.1860720 -15.9107401  27.9722094  -9.6040720  -1.7847401
  28.5182094 -10.3170720  -2.1157401  28.0982094  -8.8930720  -2.4137401
  23.2832094 -10.8170720  -9.8037401  22.4942094 -11.2060720  -9.4267401
  23.5202094 -11.4020720 -10.5227401  19.0672094  -9.6230720 -16.2457401
  18.7832094  -9.6010720 -15.3327401  19.4712094 -10.4840720 -16.3517401
  23.9892094  -0.9970720  -3.4167401  24.7282094  -1.5910720  -3.5477401
  23.9072094  -0.5280720  -4.2477401  13.5692094 -17.6860720 -13.1077401
  14.0112094 -17.4030720 -12.3077401  13.9642094 -17.1560720 -13.8007401
  25.0092094 -10.8930720   5.3282599  24.2382094 -11.3560720   5.0002599
  25.7462094 -11.3090720   4.8822599  28.1802094  -4.7470720 -17.8997401
  28.5372094  -3.8730720 -18.0587401  27.5922094  -4.6340720 -17.1537401
  34.3402094  -8.4770720  -2.8557401  34.6882094  -9.0630720  -2.1837401
  33.6582094  -8.9890720  -3.2907401  35.6692094 -10.6290720  -9.7447401
  36.0832094 -10.3890720  -8.9157401  36.0892094 -10.0660720 -10.3947401
  22.0862094   5.0049280 -10.5187401  22.0232094   5.2609280  -9.5977401
  22.0342094   4.0489280 -10.5057401  13.6192094 -12.3230720  -9.7177401
  12.8412094 -11.7680720  -9.7747401  13.3802094 -13.1210720 -10.1897401
  21.7512094 -10.2320720  -6.8807401  22.5002094  -9.6420720  -6.9697401
  22.0292094 -11.0390720  -7.3147401  17.7202094 -16.7270720  -8.3007401
  17.6342094 -16.0560720  -8.9787401  18.5672094 -16.5490720  -7.8927401
  15.1892094  -7.7630720 -15.0987401  15.8712094  -7.1490720 -15.3697401
  15.1132094  -7.6360720 -14.1527401  15.6932094   7.9859280 -14.6657401
  16.4472094   8.2519280 -15.1927401  15.8492094   8.3819280 -13.8087401
  11.2252094   5.6919280  -9.4327401  12.1602094   5.4839280  -9.4307401
  11.1872094   6.6229280  -9.6507401  25.0442094 -15.7670720 -13.0657401
  25.9612094 -15.9520720 -13.2677401  24.5552094 -16.1570720 -13.7897401
  32.0082094 -14.1340720 -10.7757401  32.1182094 -14.8330720 -11.4207401
  32.6862094 -13.4960720 -10.9957401  16.8372094  -9.7220720 -11.5097401
  17.5912094  -9.2860720 -11.1127401  16.4652094 -10.2500720 -10.8037401
  25.0282094 -10.2310720   1.6872599  24.7652094 -11.0670720   2.0712599
  24.2112094  -9.7410720   1.5942599  23.5942094 -17.9350720  -0.3377401
  24.2972094 -17.2850720  -0.3407401  23.3842094 -18.0570720   0.5882599
  18.8322094 -13.4370720   4.2212599  19.1072094 -14.0700720   4.8852599
  19.1182094 -12.5910720   4.5652599  25.5262094 -12.9280720  -2.3697401
  25.3822094 -12.1130720  -1.8887401  26.4422094 -13.1480720  -2.2007401
  15.0112094 -11.8590720 -17.4837401  15.8862094 -12.1690720 -17.2517401
  14.5572094 -11.7700720 -16.6457401  14.6542094 -12.0100720   7.1032599
  14.2662094 -11.4130720   7.7432599  15.0562094 -11.4360720   6.4522599
  20.6752094 -13.2040720  -1.6037401  19.7592094 -13.0910720  -1.3477401
  20.9052094 -12.3840720  -2.0407401  34.3202094  -8.0740720 -12.8097401
  33.4002094  -7.8400720 -12.9317401  34.7182094  -7.2900720 -12.4317401
  22.8862094  -7.9180720   2.1232599  22.1162094  -7.3520720   2.0672599
  22.9322094  -8.1700720   3.0452599  12.5632094 -15.7130720 -14.8457401
  13.1252094 -14.9710720 -15.0687401  12.3142094 -15.5600720 -13.9337401
  28.6872094  -0.6730720   2.2772599  28.7172094   0.2809280   2.2032599
  28.4042094  -0.9710720   1.4132599  23.3862094  -8.7800720   4.9412599
  24.1392094  -9.1830720   5.3732599  22.6952094  -9.4410720   4.9972599
  27.4952094  -8.8820720   2.1342599  26.7532094  -8.8570720   2.7372599
  27.2212094  -8.3410720   1.3932599  30.7742094 -10.2880720 -16.0447401
  29.8822094  -9.9420720 -16.0627401  31.2992094  -9.6200720 -16.4857401
  25.6042094  -6.7930720   1.3402599  26.0272094  -6.3720720   2.0892599
  24.7122094  -6.9720720   1.6382599  22.1632094  -6.3990720   4.5692599
  22.8182094  -5.8450720   4.1442599  22.6742094  -7.0660720   5.0272599
  27.3142094  -4.1500720  -2.1287401  28.0442094  -3.5470720  -2.2677401
  27.4522094  -4.4950720  -1.2467401  24.9102094 -12.5490720  -4.8547401
  25.3952094 -11.7240720  -4.8527401  24.9502094 -12.8530720  -3.9477401
  24.2462094 -17.2730720 -15.6917401  24.5102094 -18.1360720 -15.3727401
  23.5202094 -17.4510720 -16.2907401  19.3302094  -8.5140720   4.0952599
  19.9832094  -8.4070720   3.4032599  19.0152094  -7.6270720   4.2672599
  17.4722094 -11.6770720  -6.7877401  18.0282094 -12.4490720  -6.8957401
  17.3702094 -11.5860720  -5.8397401  18.7072094 -10.9090720   5.2472599
  18.9622094 -10.0760720   4.8492599  17.9412094 -11.1890720   4.7462599
  36.0182094 -14.2920720 -17.0977401  36.0572094 -14.5860720 -16.1877401
  36.7272094 -14.7670720 -17.5327401  20.0192094 -15.4680720   6.4702599
  19.4092094 -14.7640720   6.6882599  19.4772094 -16.1320720   6.0442599
  29.2612094 -12.1770720  10.0982599  30.1472094 -12.5370720  10.0452599
  28.6872094 -12.9320720   9.9732599  25.0242094 -15.7630720  -1.0337401
  25.9272094 -15.9440720  -1.2967401  24.9732094 -14.8080720  -0.9907401
  23.0832094  -2.1570720   5.4802599  22.7752094  -2.7260720   6.1852599
  24.0372094  -2.1740720   5.5572599  19.4972094  -3.7260720  -0.9107401
  18.7872094  -3.7770720  -1.5507401  20.1472094  -3.1540720  -1.3187401
  28.7642094 -11.4710720  -5.8277401  27.9892094 -11.0490720  -5.4567401
  28.8872094 -11.0450720  -6.6757401  21.8672094   7.6749280   7.3152599
  22.5602094   8.2079280   6.9242599  21.5252094   8.2129280   8.0292599
  12.8612094   2.0559280 -19.3037401  13.2822094   2.3049280 -18.4807401
  13.5712094   1.7009280 -19.8377401  10.2152094  -3.2960720 -17.9527401
  10.3442094  -2.3480720 -17.9237401  11.0602094  -3.6450720 -18.2337401
  12.8512094 -13.3890720  -1.1337401  13.4502094 -13.6850720  -0.4477401
  12.3762094 -14.1780720  -1.3937401  10.7422094  -8.7820720 -16.1107401
   9.9092094  -9.1500720 -15.8137401  10.6492094  -7.8390720 -15.9747401
  19.2672094 -19.2760720   6.2692599  19.0822094 -19.2220720   7.2062599
  18.8622094 -18.4920720   5.8982599  12.8832094 -15.0030720   8.5792599
  13.4602094 -14.7800720   7.8492599  13.4172094 -14.8570720   9.3602599
  16.2102094 -11.4640720   4.0172599  15.5522094 -10.8710720   4.3802599
  15.7242094 -12.2600720   3.8012599   9.8232094 -12.3760720  -6.7307401
   9.3122094 -11.7550720  -6.2127401   9.1712094 -12.9570720  -7.1207401
  17.3072094 -19.8010720 -15.9737401  16.7572094 -19.7300720 -16.7547401
  18.1612094 -19.4700720 -16.2517401  22.7442094   3.9859280   6.9002599
  22.0092094   3.4329280   6.6362599  23.2772094   4.0699280   6.1092599
  14.3422094 -14.4240720   6.1552599  13.8612094 -14.5380720   5.3362599
  14.4612094 -13.4780720   6.2342599  21.4982094 -10.7440720   5.6142599
  20.6602094 -10.8780720   5.1722599  21.7972094 -11.6260720   5.8342599
  31.9552094 -15.4940720  -2.2397401  31.0162094 -15.5340720  -2.4217401
  32.3692094 -15.8230720  -3.0377401  23.4922094  -3.7180720  -0.7357401
  23.6572094  -3.0300720  -1.3817401  23.8542094  -4.5100720  -1.1317401
  18.6102094 -20.1500720   2.9782599  18.9852094 -20.2690720   3.8512599
  19.3602094 -19.9440720   2.4202599  11.5612094 -19.5290720   3.2062599
  12.2322094 -18.9770720   3.6092599  10.9412094 -18.9100720   2.8222599
  14.9892094  -5.0200720 -12.3217401  14.8022094  -5.9500720 -12.1967401
  15.0202094  -4.6590720 -11.4357401   8.9622094 -20.9380720   9.5502599
   9.7622094 -20.4920720   9.8282599   8.2952094 -20.2510720   9.5422599
  19.9182094  -9.3500720  -0.4277401  19.4162094 -10.1400720  -0.6247401
  19.8392094  -8.8130720  -1.2167401  17.9992094 -17.0540720   5.3202599
  17.1002094 -16.9910720   5.6432599  17.9092094 -17.1000720   4.3682599
  14.5982094 -13.3170720   3.1532599  14.1912094 -14.1750720   3.2712599
  14.0852094 -12.9010720   2.4602599  13.1462094 -19.0780720  10.2662599
  12.5902094 -19.1500720  11.0412599  12.6622094 -19.5360720   9.5792599
  36.1212094 -21.6590720   7.9822599  36.4912094 -20.9150720   8.4572599
  36.6462094 -21.7200720   7.1842599  26.0142094 -18.0330720   2.9642599
  26.0462094 -18.9470720   3.2482599  26.5242094 -18.0160720   2.1542599
  20.2212094  -7.1620720 -16.1447401  20.6172094  -6.8870720 -16.9707401
  19.7892094  -7.9910720 -16.3497401  21.8452094 -19.9200720   4.9422599
  22.4862094 -20.0130720   5.6472599  21.0782094 -19.5340720   5.3652599
  14.3982094 -13.5580720 -13.9997401  13.8292094 -12.8060720 -13.8347401
  15.1562094 -13.4150720 -13.4337401  37.3032094 -13.3990720  -7.9637401
  37.3802094 -14.3130720  -8.2387401  36.4812094 -13.1000720  -8.3517401
  28.2522094 -11.9240720 -17.3717401  28.7202094 -12.5470720 -16.8167401
  28.7322094 -11.9330720 -18.2007401  12.0822094  -2.7110720 -12.8947401
  12.4792094  -1.8660720 -12.6817401  12.5962094  -3.0380720 -13.6327401
   8.0652094   7.5689280 -18.1687401   8.3652094   8.0809280 -18.9197401
   8.2252094   6.6589280 -18.4187401  14.0962094 -16.9940720  -3.9147401
  13.6142094 -16.4420720  -4.5297401  13.4692094 -17.1790720  -3.2157401
  22.4382094 -13.2850720   5.9472599  21.7242094 -13.9180720   6.0182599
  22.9092094 -13.3600720   6.7772599  23.3392094  -4.7290720 -12.4727401
  22.6342094  -5.0230720 -13.0507401  22.8972094  -4.4870720 -11.6587401
  22.6302094 -21.4030720  -6.1567401  23.2952094 -22.0530720  -5.9277401
  22.7752094 -20.6840720  -5.5427401  31.2142094  -2.1840720   2.0242599
  31.4722094  -3.0680720   2.2862599  30.3592094  -2.0520720   2.4352599
  21.5832094  -3.3690720  -8.6457401  21.5582094  -3.4210720  -7.6907401
  21.4742094  -4.2750720  -8.9377401  12.3022094 -17.5580720   7.4872599
  11.3742094 -17.4230720   7.2962599  12.5362094 -16.8340720   8.0672599
  28.7292094 -19.2850720   4.9202599  28.3822094 -19.4480720   4.0432599
  28.6302094 -20.1200720   5.3772599  21.8202094   1.5789280  -9.2197401
  22.0082094   2.0439280 -10.0357401  21.9432094   0.6549280  -9.4367401
  22.5032094  -9.5090720  -3.0517401  22.1222094  -8.7510720  -2.6077401
  23.3602094  -9.6220720  -2.6407401  29.4802094  -3.7530720   4.4222599
  29.3702094  -4.5380720   4.9592599  29.9032094  -3.1220720   5.0032599
  16.9032094  -4.3000720 -18.7417401  17.6682094  -4.6750720 -19.1777401
  17.2652094  -3.8030720 -18.0077401   7.3542094 -12.7560720   0.9852599
   7.0702094 -13.5590720   1.4212599   7.1682094 -12.0610720   1.6162599
  18.5522094 -11.6340720  -0.6307401  17.9382094 -12.2920720  -0.9557401
  18.4002094 -11.6090720   0.3142599  21.5742094  -0.6290720 -18.3347401
  20.7042094  -0.3440720 -18.6137401  22.0362094  -0.8230720 -19.1497401
  17.9642094 -11.5970720  -4.0307401  18.8972094 -11.4040720  -4.1247401
  17.9342094 -12.3750720  -3.4747401  10.7442094 -14.3730720   6.6582599
  11.5442094 -14.8920720   6.7422599  10.5982094 -14.3090720   5.7142599
  27.0152094  -5.8150720  -6.2987401  27.7742094  -5.8630720  -5.7177401
  26.4812094  -6.5730720  -6.0597401  35.6202094 -20.2470720  -1.6137401
  35.5632094 -21.1710720  -1.3697401  35.5662094 -19.7760720  -0.7817401
  24.1502094  -4.9500720   3.2442599  23.9942094  -4.0270720   3.4452599
  25.0502094  -4.9760720   2.9202599  34.1172094  -9.6560720 -17.5247401
  34.1082094  -9.0810720 -16.7587401  34.8212094 -10.2800720 -17.3497401
  23.0212094 -18.2530720 -17.8927401  23.5802094 -19.0290720 -17.9307401
  22.6762094 -18.1620720 -18.7807401   8.0622094 -18.1460720   4.5742599
   7.7432094 -19.0230720   4.3632599   8.8252094 -18.0250720   4.0082599
  21.0802094  -1.8440720  -2.1357401  21.0072094  -1.0390720  -2.6487401
  21.8922094  -2.2500720  -2.4407401  17.7062094 -14.3860720  -3.4587401
  17.7312094 -15.2400720  -3.0267401  17.3282094 -14.5640720  -4.3197401
  23.0982094   6.0809280   1.5442599  22.6482094   5.3829280   1.0682599
  22.4852094   6.3349280   2.2332599  22.7452094 -17.3750720   6.7292599
  22.0502094 -16.7170720   6.7402599  22.9782094 -17.4630720   5.8052599
  24.8242094   8.5099280   3.2652599  24.6152094   7.8099280   2.6472599
  24.4952094   8.1929280   4.1062599  16.5652094 -13.4800720   8.8712599
  15.9892094 -13.3870720   8.1122599  17.3742094 -13.0380720   8.6142599
  15.1342094 -14.4670720   0.3502599  15.1112094 -15.4230720   0.3232599
  15.9742094 -14.2580720   0.7602599  24.0862094   8.3799280 -13.7077401
  23.9372094   7.6449280 -13.1117401  23.8032094   8.0559280 -14.5627401
  17.0172094   5.6649280 -13.9847401  16.1202094   5.8829280 -14.2387401
  17.5552094   5.9789280 -14.7117401  25.6162094   7.8319280   8.9432599
  25.1302094   7.0139280   8.8402599  25.9172094   7.8199280   9.8522599
   8.3092094 -15.5100720  -9.7447401   7.8362094 -15.2430720 -10.5327401
   9.1082094 -14.9830720  -9.7537401  18.2742094   4.1429280 -12.0607401
  18.0812094   4.6249280 -11.2577401  17.9472094   4.7059280 -12.7627401
   9.8622094  -2.7810720  -8.4097401  10.3712094  -2.2340720  -7.8117401
  10.2422094  -2.6110720  -9.2717401  21.1542094  -6.0320720 -13.5947401
  21.3052094  -6.9700720 -13.7087401  20.5702094  -5.7940720 -14.3147401
   9.3552094 -16.8870720  -7.2957401   8.8792094 -16.5460720  -8.0527401
   9.0312094 -16.3730720  -6.5567401  16.9092094   6.5059280 -10.7697401
  16.6092094   6.4979280 -11.6777401  16.3342094   7.1339280 -10.3327401
  35.2402094   4.3259280  -7.1807401  35.4362094   5.1669280  -6.7677401
  34.2862094   4.3139280  -7.2607401  21.0472094 -14.8250720 -16.9157401
  20.2552094 -14.3620720 -17.1917401  20.7382094 -15.4700720 -16.2797401
  17.6932094  -1.6970720 -13.2757401  17.0432094  -2.0500720 -13.8827401
  17.1822094  -1.1860720 -12.6477401  20.2782094 -16.4380720 -14.7217401
  20.8702094 -16.4470720 -13.9697401  19.5852094 -17.0560720 -14.4887401
   7.2252094  -0.0860720 -14.6867401   8.1182094  -0.4090720 -14.8027401
   6.6772094  -0.7270720 -15.1407401  22.9482094   4.3179280 -14.6397401
  22.8282094   3.5359280 -15.1797401  22.1072094   4.4349280 -14.1967401
  21.4052094  -1.2350720  -6.1947401  21.6482094  -0.3480720  -6.4607401
  22.2322094  -1.6450720  -5.9407401  24.7952094  -0.0920720   2.0642599
  24.3002094   0.6349280   2.4422599  24.3922094  -0.8760720   2.4372599
  12.9852094  -0.1670720 -12.6207401  13.6412094   0.2159280 -12.0387401
  12.1692094  -0.1290720 -12.1217401  37.1962094   0.3779280  10.4702599
  36.5012094   0.4559280  11.1242599  37.1312094  -0.5230720  10.1562599
  24.6722094   6.1079280 -11.6457401  23.8262094   5.7249280 -11.4157401
  25.0592094   5.4849280 -12.2607401   9.4972094  -2.7770720 -13.8617401
   8.8502094  -2.9380720 -13.1737401  10.3422094  -2.9120720 -13.4327401
  21.4932094   7.2179280 -12.0137401  21.9432094   6.5829280 -11.4577401
  21.1542094   6.6999280 -12.7437401  31.5062094   3.1519280  -5.2797401
  32.0842094   2.4189280  -5.4877401  31.7362094   3.8279280  -5.9177401
  13.6832094  -2.6600720 -17.0057401  13.0912094  -2.0450720 -17.4387401
  13.1842094  -3.4750720 -16.9507401  23.6242094  -2.4970720   1.8572599
  23.6912094  -3.2080720   1.2202599  22.8812094  -1.9740720   1.5562599
  14.4522094   1.5249280 -15.9937401  14.7602094   2.2879280 -16.4817401
  14.8332094   1.6279280 -15.1217401  22.6322094   3.5369280  -5.3717401
  23.4332094   3.6469280  -5.8837401  22.2682094   2.7039280  -5.6717401
  16.3542094 -16.1260720 -13.6377401  16.0382094 -15.8930720 -14.5107401
  16.6062094 -17.0460720 -13.7107401  10.4342094  -6.0800720 -16.1757401
  10.8232094  -5.4220720 -16.7517401  10.9872094  -6.0720720 -15.3947401
  11.3662094  -3.7830720 -10.4567401  11.4182094  -3.4020720 -11.3327401
  10.7792094  -4.5320720 -10.5547401  18.4582094   7.8599280 -18.6317401
  18.3312094   7.5369280 -19.5237401  17.9132094   8.6459280 -18.5817401
  13.8922094   3.3029280 -12.3617401  14.5012094   2.8199280 -12.9197401
  13.2392094   3.6549280 -12.9667401   7.9682094  -3.7860720 -16.3157401
   8.5622094  -3.7310720 -15.5667401   8.4932094  -3.4950720 -17.0607401
  17.1562094   3.9409280  -7.8707401  17.2482094   4.6399280  -7.2227401
  16.7182094   4.3589280  -8.6127401  20.0432094 -19.5120720  -9.7777401
  20.8212094 -20.0080720  -9.5217401  19.8262094 -18.9900720  -9.0057401
  18.0932094   0.7079280 -17.4407401  18.0582094  -0.1760720 -17.8067401
  17.6212094   1.2489280 -18.0737401   7.8022094  -6.8210720 -16.9527401
   7.1732094  -6.1100720 -16.8337401   8.6532094  -6.4210720 -16.7757401
  23.0402094   2.3189280 -11.4467401  23.1012094   2.2089280 -12.3957401
  23.9442094   2.4459280 -11.1607401  11.5522094   0.9979280  -8.4807401
  11.0132094   1.4479280  -7.8297401  12.2432094   1.6249280  -8.6947401
  18.8172094   1.6949280  -8.1607401  19.1012094   1.6889280  -9.0747401
  18.1372094   2.3679280  -8.1247401  27.2732094 -18.5320720 -17.9677401
  27.6202094 -19.2160720 -18.5407401  26.4122094 -18.8560720 -17.7027401
  35.3642094 -19.1420720   0.7652599  34.5622094 -19.3550720   1.2432599
  35.6162094 -18.2780720   1.0902599  26.4082094   7.3379280 -10.0787401
  25.8692094   7.7259280  -9.3897401  25.7852094   7.0979280 -10.7647401
   8.1792094 -21.5690720   6.3512599   8.9642094 -21.4980720   5.8082599
   8.4292094 -21.1750720   7.1872599  13.9262094   2.6139280  -9.4007401
  14.0262094   3.5219280  -9.1157401  14.0562094   2.6439280 -10.3487401
  17.6202094 -20.1200720  -3.6637401  17.7862094 -20.0920720  -2.7207401
  17.8952094 -19.2600720  -3.9807401  33.5252094 -13.0430720  -4.6787401
  33.1192094 -12.1760720  -4.6587401  32.7872094 -13.6530720  -4.6857401
  10.2932094   0.3819280 -11.2057401  10.6062094   1.1389280 -10.7097401
   9.3392094   0.4589280 -11.1847401  22.6242094   1.6899280   0.6232599
  23.1932094   1.5479280  -0.1327401  22.1882094   0.8489280   0.7572599
  14.2492094  -0.1140720 -10.1087401  14.4502094   0.6479280  -9.5647401
  13.7362094  -0.6870720  -9.5387401  19.2532094   7.3229280  -9.6817401
  18.4152094   6.9749280  -9.9877401  19.7082094   7.5889280 -10.4807401
  18.0532094  -3.0920720 -16.6217401  17.8592094  -2.1600720 -16.5167401
  18.7492094  -3.2650720 -15.9867401  20.8312094 -21.1210720 -17.5387401
  20.0502094 -21.3440720 -18.0447401  20.8362094 -20.1640720 -17.5127401
  10.3612094 -20.9810720 -14.8117401  11.3162094 -20.9140720 -14.8177401
  10.0652094 -20.1560720 -14.4277401  16.6082094  -0.1090720 -11.4117401
  16.0042094  -0.0820720 -10.6697401  17.3982094   0.3289280 -11.0937401
  36.0422094   2.3489280  -8.9237401  35.3202094   1.7259280  -9.0137401
  35.7332094   2.9829280  -8.2767401  32.6512094   3.6069280 -10.8027401
  31.7642094   3.8549280 -11.0617401  33.0882094   3.3859280 -11.6257401
  31.6632094  -0.7360720  -0.3617401  32.5072094  -0.4720720  -0.7287401
  31.8892094  -1.3280720   0.3562599  20.1382094 -20.2590720  -6.8507401
  20.7612094 -20.9590720  -6.6537401  19.2942094 -20.6000720  -6.5557401
  37.0302094   5.3319280 -10.4367401  36.4242094   4.6339280 -10.6897401
  37.6192094   4.9199280  -9.8047401  20.4612094   4.4569280 -13.8217401
  20.2652094   4.2909280 -12.8997401  19.7002094   4.1199280 -14.2937401
  21.1552094   1.6319280  -6.6347401  20.2482094   1.5539280  -6.9327401
  21.6622094   1.7479280  -7.4377401  36.0062094   7.3989280   0.1622599
  36.5372094   7.2339280   0.9412599  35.1042094   7.2749280   0.4562599
  14.3872094 -19.3790720   0.4112599  14.9392094 -20.1450720   0.2542599
  13.6362094 -19.7200720   0.8982599  21.6882094  -8.7120720 -13.5137401
  21.5602094  -8.8900720 -12.5817401  20.8052094  -8.7230720 -13.8837401
  18.0832094  -1.8140720  -9.4487401  17.2912094  -1.7570720  -8.9147401
  18.7972094  -1.6310720  -8.8377401  26.2132094  -6.8660720 -13.7797401
  26.3662094  -6.0230720 -13.3537401  26.0092094  -7.4640720 -13.0607401
  34.5402094 -21.2540720  -6.5527401  34.6972094 -21.8910720  -5.8557401
  35.1242094 -20.5240720  -6.3467401  19.3002094  -3.2150720 -11.6487401
  18.9322094  -2.9870720 -10.7947401  18.7522094  -2.7460720 -12.2787401
  31.8502094  -1.9890720  -6.9007401  32.0922094  -2.6980720  -6.3057401
  31.3782094  -2.4230720  -7.6117401  32.4072094  -6.6980720 -18.0327401
  32.5052094  -7.4780720 -18.5797401  31.6242094  -6.2630720 -18.3737401
  26.0552094   6.0459280 -16.0367401  26.9142094   5.7639280 -15.7237401
  25.4402094   5.7129280 -15.3837401  15.5452094 -17.3860720 -17.5257401
  15.6362094 -16.7430720 -16.8227401  14.7242094 -17.8400720 -17.3317401
  18.3892094   7.1989280 -15.9167401  18.3992094   8.0299280 -15.4407401
  18.7922094   7.4019280 -16.7617401  17.3982094   6.8699280  -7.4237401
  18.1952094   6.7319280  -7.9357401  17.7102094   7.0399280  -6.5347401
  24.5752094   0.7999280   8.0402599  24.8262094   1.3089280   8.8112599
  25.3082094   0.9069280   7.4332599   8.8682094   6.8859280 -11.8037401
   9.5372094   6.3769280 -12.2597401   8.0832094   6.3399280 -11.8417401
  33.1112094   1.1969280  -6.1817401  32.9152094   1.1799280  -7.1187401
  33.2692094   0.2819280  -5.9517401  26.4972094   5.1129280  -5.3537401
  26.7982094   5.3109280  -4.4667401  26.5492094   4.1589280  -5.4177401
  10.5412094   3.1449280 -10.3197401  10.9432094   3.9809280 -10.0847401
   9.7052094   3.3849280 -10.7207401   8.6002094   5.1909280 -18.9897401
   9.3762094   5.5039280 -19.4547401   8.4222094   4.3319280 -19.3717401
  36.7962094   6.3039280  -4.0627401  37.2922094   5.5699280  -4.4267401
  37.4522094   6.9829280  -3.9047401  29.5532094  -6.9340720 -10.6977401
  28.9272094  -6.8980720  -9.9747401  30.3252094  -6.4720720 -10.3697401
  20.4672094   0.4879280  -3.7737401  19.5152094   0.3949280  -3.7487401
  20.7072094   0.2619280  -4.6717401  20.1432094  -0.1980720 -13.0217401
  20.6732094   0.2419280 -13.6867401  19.5902094  -0.8030720 -13.5167401
  10.6282094 -15.3830720 -17.4807401  11.1902094 -14.7160720 -17.8757401
  11.1632094 -15.7650720 -16.7847401  24.1992094   2.0339280 -19.2867401
  24.6542094   2.8039280 -18.9457401  23.3282094   2.3539280 -19.5227401
  25.4462094  -8.9660720 -11.9497401  24.8942094  -9.5940720 -12.4157401
  24.8462094  -8.5140720 -11.3567401   7.3242094 -18.0050720 -13.5487401
   7.1792094 -18.9190720 -13.7907401   7.2602094 -17.9970720 -12.5937401
  27.0912094 -21.2730720   6.9292599  26.4942094 -21.5110720   7.6382599
  27.4832094 -20.4470720   7.2122599  33.5632094   1.5839280   2.7612599
  33.0942094   2.2769280   2.2972599  34.4292094   1.5659280   2.3542599
  15.8832094 -16.6280720   6.8332599  15.7532094 -16.7290720   7.7762599
  15.1542094 -16.0770720   6.5472599  12.2422094 -20.5640720   8.2312599
  12.4242094 -19.7550720   7.7542599  12.1112094 -21.2210720   7.5472599
  11.9352094   4.8659280 -17.3047401  12.0182094   4.1449280 -16.6807401
  11.1152094   5.2969280 -17.0667401  30.5592094   7.7899280  -2.4147401
  30.4952094   6.8349280  -2.3997401  30.1822094   8.0419280  -3.2567401
  23.4432094   1.8849280   3.0722599  23.0922094   1.9889280   2.1882599
  22.6832094   1.9919280   3.6462599  23.5982094   6.3669280  -3.3457401
  23.9802094   6.8889280  -2.6417401  24.1692094   6.5239280  -4.0987401
  20.7252094  -4.5670720   2.9602599  21.2882094  -5.1770720   3.4372599
  20.6162094  -4.9660720   2.0972599  20.6702094  -2.0840720   4.1382599
  20.7892094  -2.8930720   3.6402599  21.3832094  -2.0870720   4.7762599
  12.7052094  -0.7000720 -18.7517401  11.8002094  -0.6610720 -19.0617401
  13.0562094   0.1729280 -18.9257401  30.5282094   3.8039280   6.8832599
  31.0612094   4.2209280   6.2052599  29.8312094   4.4349280   7.0612599
  28.2872094   5.6329280   6.8922599  27.9392094   5.7749280   6.0122599
  28.5372094   6.5059280   7.1952599  21.8852094   4.2199280   0.2572599
  22.0152094   4.2299280  -0.6917401  21.8242094   3.2919280   0.4812599
  15.6472094 -19.0100720   5.5432599  15.2792094 -19.7520720   6.0222599
  15.6562094 -18.2950720   6.1792599  31.7082094  -4.5630720   3.0032599
  32.3082094  -5.2570720   3.2762599  30.8802094  -4.7770720   3.4322599
  21.8812094   6.0369280  10.0682599  20.9832094   5.7969280  10.2952599
  21.7902094   6.6289280   9.3212599  24.4232094   4.2759280   4.8442599
  25.1792094   4.1929280   4.2632599  23.8312094   3.5759280   4.5692599
  23.5702094   3.4639280  -2.8627401  23.1682094   3.4149280  -3.7297401
  23.8812094   4.3659280  -2.7927401  15.9202094   3.7219280 -16.6017401
  16.6402094   3.7919280 -17.2277401  15.4802094   4.5709280 -16.6467401
  33.9582094 -17.8990720   3.3412599  33.9602094 -18.7270720   3.8212599
  34.5422094 -17.3300720   3.8412599  17.1062094 -18.0100720   2.4382599
  16.3022094 -18.1030720   2.9492599  17.6962094 -18.6740720   2.7942599
  15.6712094  -8.9070720  -6.6107401  15.9452094  -8.3530720  -7.3407401
  16.4362094  -9.4510720  -6.4217401  12.0562094   0.4419280 -14.8927401
  12.6712094   0.7729280 -15.5477401  12.5752094   0.3709280 -14.0907401
   8.3712094   2.3039280 -17.1037401   8.8912094   1.8079280 -17.7357401
   8.8092094   2.1579280 -16.2657401  18.0322094 -19.3730720   8.7432599
  17.1522094 -19.5720720   8.4232599  17.9082094 -19.1540720   9.6662599
  28.8332094   4.2939280  -0.1377401  29.0712094   3.9249280  -0.9877401
  28.3252094   3.6029280   0.2892599  33.6882094   1.8459280 -15.4957401
  34.4552094   1.7319280 -16.0567401  33.3402094   2.7039280 -15.7367401
  23.0662094 -19.4600720   2.3132599  22.7022094 -19.6080720   3.1862599
  23.9702094 -19.7680720   2.3752599  26.5282094  -2.1650720   0.9512599
  26.2162094  -2.4520720   0.0932599  25.7312094  -1.9760720   1.4462599
  21.7222094 -18.2070720   9.3512599  21.3592094 -19.0760720   9.1752599
  22.2412094 -18.0030720   8.5732599  24.2892094  -5.8390720   6.5212599
  24.9622094  -5.1590720   6.4792599  23.4812094  -5.3650720   6.7162599
  20.2522094 -20.0100720   0.6142599  21.1522094 -19.9600720   0.9372599
  20.1272094 -20.9330720   0.3942599  15.4402094 -20.2970720   8.7572599
  14.7832094 -20.1560720   9.4392599  15.3762094 -21.2310720   8.5532599
  25.6742094 -13.5360720 -17.7787401  26.3872094 -13.1820720 -17.2477401
  25.2382094 -12.7640720 -18.1407401  22.3192094  -4.3030720   7.0102599
  22.4282094  -3.8720720   7.8582599  21.7322094  -5.0370720   7.1882599
  21.6402094  -0.6540720 -15.6077401  21.5552094  -0.7970720 -16.5507401
  22.2102094  -1.3620720 -15.3087401  32.2812094 -18.5510720   6.0182599
  31.9472094 -18.8700720   5.1802599  32.8242094 -19.2670720   6.3482599
  22.9852094   7.1589280 -16.1327401  22.8492094   6.2329280 -16.3327401
  22.3172094   7.6159280 -16.6437401  16.2732094 -20.3880720 -18.2107401
  15.5892094 -21.0580720 -18.2347401  15.8602094 -19.6100720 -18.5837401
  20.3092094  -6.3290720   6.9732599  20.1872094  -7.2780720   6.9502599
  20.3902094  -6.0760720   6.0532599  12.6892094 -21.3880720   1.5112599
  12.3392094 -20.7610720   2.1442599  12.5512094 -22.2430720   1.9202599
  21.8582094 -13.7680720 -14.0307401  22.5502094 -13.8890720 -14.6807401
  21.5872094 -14.6570720 -13.8017401  19.4302094 -15.2180720 -11.5087401
  20.2512094 -15.6450720 -11.7517401  18.7642094 -15.6620720 -12.0337401
  17.9612094 -15.3530720  10.5802599  18.3082094 -14.6750720  11.1592599
  17.3412094 -14.8920720  10.0142599  32.1482094  -6.4470720 -12.9707401
  31.2592094  -6.2200720 -13.2447401  32.6792094  -5.6940720 -13.2287401
  26.5642094 -14.0180720  -6.5937401  26.7512094 -13.5850720  -7.4267401
  26.1672094 -13.3360720  -6.0517401  37.1262094  -8.6310720   0.7712599
  36.4282094  -8.0150720   0.5472599  36.7362094  -9.4940720   0.6322599
  30.6242094 -13.4640720  -4.7857401  30.2502094 -13.0960720  -5.5867401
  30.2582094 -14.3470720  -4.7337401  34.6662094 -17.5700720  -8.7327401
  34.5242094 -17.2700720  -9.6297401  34.9012094 -18.4940720  -8.8217401
  31.0292094 -13.6530720  -8.2527401  30.4522094 -13.0790720  -8.7557401
  31.6902094 -13.9400720  -8.8827401  31.3272094 -20.2140720  -8.4437401
  30.4112094 -20.0950720  -8.1937401  31.2972094 -20.8220720  -9.1817401
  30.0122094   0.2819280  10.5162599  30.2972094  -0.4030720  11.1222599
  30.5852094   0.1819280   9.7562599   7.2482094 -14.8360720  -1.8027401
   7.9662094 -14.2320720  -1.6137401   6.9052094 -14.5430720  -2.6467401
  26.5752094  -9.5400720 -17.6777401  25.6322094  -9.4450720 -17.8127401
  26.7482094 -10.4670720 -17.8447401  25.8102094 -16.6740720  -6.8777401
  26.3802094 -17.0810720  -7.5307401  26.1842094 -15.8030720  -6.7417401
  35.4082094   1.7589280  -4.5177401  34.7512094   1.8889280  -5.2007401
  36.2232094   1.6009280  -4.9957401  34.9482094 -18.7790720 -15.4367401
  35.4032094 -19.5460720 -15.7847401  34.2282094 -18.6290720 -16.0487401
  23.0572094 -14.5470720 -18.7257401  22.3902094 -14.7120720 -18.0587401
  23.6442094 -13.9070720 -18.3247401  26.7212094  -4.3240720   7.2602599
  27.4792094  -4.6910720   6.8052599  26.7252094  -4.7520720   8.1162599
  32.6382094 -14.5940720 -13.8867401  32.0732094 -15.3570720 -14.0077401
  32.9512094 -14.3850720 -14.7677401  21.9852094 -10.3050720   1.1092599
  21.3082094  -9.8320720   0.6252599  22.5652094  -9.6190720   1.4422599
  25.6532094   2.2399280 -10.1977401  26.0252094   3.0519280 -10.5397401
  26.1022094   1.5469280 -10.6817401  23.8952094 -14.5580720 -15.4997401
  24.3842094 -14.0490720 -16.1467401  23.9722094 -15.4640720 -15.7997401
  12.8032094 -17.6480720  -1.4237401  13.3172094 -18.1490720  -0.7917401
  12.2972094 -18.3080720  -1.8987401  32.4842094 -15.9470720   0.3532599
  33.3592094 -16.2820720   0.1572599  32.1092094 -15.7400720  -0.5027401
  17.6952094 -14.4290720   1.5282599  18.5352094 -14.7710720   1.2202599
  17.8162094 -14.3090720   2.4702599  12.6182094 -12.6390720  -6.0397401
  11.7322094 -12.7200720  -5.6877401  12.5942094 -11.8410720  -6.5687401
  36.7202094 -20.8640720 -16.0097401  37.3832094 -20.8010720 -16.6967401
  36.3302094 -21.7300720 -16.1317401  26.3082094 -10.2430720  -5.5497401
  25.9182094 -10.1650720  -6.4207401  25.9502094  -9.5040720  -5.0587401
  30.6382094  -4.9500720  -1.4657401  30.1972094  -4.3180720  -2.0337401
  30.0302094  -5.0840720  -0.7387401   8.4302094   3.8179280  -8.2967401
   9.0712094   3.2349280  -8.7037401   7.6282094   3.2979280  -8.2487401
   7.7462094 -18.1270720 -17.2797401   8.0912094 -17.6220720 -18.0157401
   6.8072094 -18.1940720 -17.4537401  32.6402094   1.4369280 -13.0387401
  33.3512094   1.0279280 -12.5447401  33.0132094   1.6009280 -13.9047401
  27.0162094  -9.4020720 -14.5457401  27.4752094  -9.2420720 -13.7217401
  26.7422094  -8.5340720 -14.8407401  25.2042094 -14.5570720   7.8332599
  24.5132094 -15.0030720   8.3222599  25.2872094 -15.0590720   7.0222599
  32.7482094 -10.4320720  -3.9107401  32.3062094 -10.9670720  -3.2517401
  32.0462094  -9.9220720  -4.3157401   8.8832094  -7.0010720 -13.7317401
   8.2612094  -7.0510720 -14.4587401   8.9492094  -7.9000720 -13.4107401
  33.9302094 -17.9500720  -1.5237401  33.6532094 -17.4810720  -2.3107401
  33.2342094 -18.5870720  -1.3657401  28.8132094  -2.0770720 -18.1827401
  29.5912094  -2.4810720 -17.7997401  28.5732094  -1.3850720 -17.5667401
  27.0832094 -13.7810720   9.8482599  26.6432094 -14.0460720   9.0402599
  26.4612094 -13.9950720  10.5422599  36.4052094   2.2019280 -13.5477401
  36.5532094   2.7549280 -14.3147401  36.6182094   1.3169280 -13.8447401
  28.4542094 -20.8080720 -10.8027401  28.5872094 -20.4640720  -9.9197401
  27.7792094 -21.4790720 -10.6987401  31.3712094 -17.1340720   9.8892599
  31.1072094 -16.5420720   9.1852599  30.6222094 -17.1460720  10.4862599
  34.2082094 -20.9490720   3.9702599  33.2992094 -21.1910720   3.7912599
  34.6462094 -21.7800720   4.1542599  34.2422094  -1.2130720  -5.8527401
  33.3932094  -1.4980720  -6.1897401  34.6202094  -1.9990720  -5.4587401
  30.5502094 -16.5190720  -7.5707401  30.9522094 -15.6830720  -7.8087401
  31.2912094 -17.0990720  -7.3927401  32.1632094 -20.5350720   0.7272599
  31.8602094 -20.1670720  -0.1027401  31.6632094 -20.0660720   1.3952599
  29.7192094   2.3489280  -3.1167401  30.5072094   2.2619280  -2.5807401
  30.0462094   2.5029280  -4.0027401  33.5092094 -14.0710720   4.5562599
  33.4892094 -14.8110720   5.1622599  34.2922094 -13.5790720   4.8042599
   7.3612094  -9.7310720  -7.7797401   7.6282094  -9.9590720  -6.8897401
   8.0872094  -9.2110720  -8.1227401  32.9242094  -2.4180720 -11.2057401
  32.0372094  -2.4360720 -10.8467401  33.3742094  -3.1400720 -10.7687401
  23.8412094 -11.9950720 -12.2857401  23.4732094 -12.4620720 -13.0367401
  24.7452094 -12.3030720 -12.2307401  25.5302094   4.1829280 -13.3427401
  26.0532094   3.4359280 -13.6347401  24.7842094   4.2019280 -13.9417401
  11.9802094   4.2489280 -14.1377401  11.5402094   5.0729280 -13.9257401
  11.2672094   3.6309280 -14.2977401  30.4292094   1.6019280  -8.8937401
  30.1582094   2.1609280  -9.6227401  29.7382094   0.9429280  -8.8287401
  32.9252094   4.9499280  -3.3857401  32.7272094   4.0549280  -3.6597401
  32.0732094   5.3289280  -3.1697401   7.2182094 -15.2290720 -12.0967401
   6.6402094 -15.6700720 -12.7207401   7.8962094 -14.8270720 -12.6407401
  12.5982094 -19.9250720  -5.2847401  13.5402094 -20.0180720  -5.4317401
  12.3072094 -19.3190720  -5.9657401  28.1662094 -10.2130720   8.7182599
  28.6722094 -10.8250720   9.2522599  28.6592094 -10.1440720   7.9002599
  19.2282094 -17.7750720 -19.0767401  18.6362094 -17.0520720 -19.2837401
  19.9032094 -17.7340720 -19.7547401  31.6472094 -19.4770720  -1.8197401
  31.8852094 -19.3800720  -2.7417401  31.1072094 -20.2670720  -1.7927401
  15.7372094 -17.1650720   0.0422599  16.3442094 -17.4680720   0.7182599
  15.0022094 -17.7770720   0.0892599  34.8612094 -14.3340720   9.1072599
  35.3802094 -13.5600720   8.8872599  34.7012094 -14.7640720   8.2672599
  28.4212094 -19.8340720  -8.3357401  28.2442094 -19.8160720  -7.3957401
  28.2852094 -18.9310720  -8.6227401  29.3042094 -15.3400720  -2.9247401
  28.7632094 -14.7460720  -2.4047401  28.8682094 -15.3800720  -3.7757401
  24.2332094 -11.7870720  10.7092599  24.1202094 -10.8500720  10.8642599
  24.5472094 -11.8450720   9.8062599  35.1822094 -20.0200720 -10.0897401
  34.8562094 -20.7900720  -9.6247401  34.7732094 -20.0700720 -10.9537401
  28.7592094  -5.4760720   0.0752599  28.4462094  -5.0090720   0.8492599
  29.2152094  -6.2420720   0.4242599  31.7762094  -8.7600720  -1.3267401
  32.5182094  -9.2720720  -1.6497401  32.1762094  -8.0450720  -0.8307401
   9.8832094 -17.4740720   2.4852599   9.4932094 -17.9770720   1.7702599
  10.1872094 -16.6660720   2.0702599  37.0542094   0.9209280   4.3332599
  37.7072094   0.4469280   3.8192599  36.3102094   1.0249280   3.7392599
  30.1592094   8.2069280 -12.7057401  29.5052094   8.5439280 -12.0937401
  30.8312094   7.8149280 -12.1467401  37.2192094 -12.2080720 -12.0387401
  36.2832094 -12.3100720 -11.8667401  37.3592094 -12.6530720 -12.8737401
  19.3272094 -14.1080720  -7.1637401  20.2672094 -14.1330720  -7.3427401
  19.1542094 -14.9140720  -6.6777401  29.4442094  -9.2020720  -7.9027401
  28.9392094  -8.4100720  -8.0867401  29.3952094  -9.7110720  -8.7117401
  35.1812094 -12.6290720  -0.6727401  36.0722094 -12.7770720  -0.3537401
  34.6292094 -13.1560720  -0.0947401  33.1222094  -0.4650720   9.5502599
  32.6172094  -0.5460720   8.7422599  33.6242094   0.3429280   9.4402599
   9.8242094 -12.6370720 -10.7517401  10.2472094 -12.4350720  -9.9167401
   8.9582094 -12.2360720 -10.6847401   9.1542094 -13.3120720  -0.9587401
  10.0052094 -12.9080720  -0.7907401   8.5962094 -13.0020720  -0.2457401
  34.6912094 -15.6060720  -6.7097401  34.8222094 -16.4310720  -7.1777401
  34.6202094 -14.9470720  -7.4007401  13.2532094 -18.0590720 -16.0507401
  12.9002094 -17.1950720 -15.8367401  12.5632094 -18.4780720 -16.5657401
  27.3502094 -18.3150720 -12.2117401  27.9762094 -18.8810720 -11.7587401
  26.6162094 -18.2340720 -11.6037401  13.0742094 -11.2830720 -14.0217401
  12.8232094 -10.7270720 -13.2837401  13.0602094 -10.6980720 -14.7787401
  29.2382094   6.2839280   1.9922599  29.4792094   5.7489280   1.2362599
  29.5952094   7.1509280   1.7962599  33.1922094   6.8869280   1.1912599
  32.5752094   6.3049280   0.7462599  32.8662094   7.7679280   1.0062599
  23.1392094  -5.6190720 -18.7107401  22.2572094  -5.9570720 -18.5577401
  23.5782094  -6.3110720 -19.2057401  29.3522094 -13.7960720 -10.7507401
  30.2662094 -14.0800720 -10.7827401  29.3152094 -13.0400720 -11.3367401
  31.5742094 -10.6660720 -12.1477401  31.8822094 -10.2190720 -11.3597401
  32.2862094 -10.5580720 -12.7787401  27.6542094   6.0339280  -2.8837401
  27.2022094   6.8439280  -2.6457401  27.1002094   5.3369280  -2.5337401
  24.3672094   2.9219280  -7.7917401  24.3212094   2.5279280  -8.6627401
  25.0642094   3.5749280  -7.8597401  34.2982094 -13.6410720  -8.6267401
  33.8572094 -12.9040720  -8.2037401  34.4732094 -13.3360720  -9.5177401
  31.6182094 -13.3310720 -19.2197401  32.1872094 -12.7310720 -19.7017401
  32.1372094 -13.5950720 -18.4597401  34.8522094  -3.7300720   1.0482599
  34.1972094  -3.6430720   1.7412599  34.9802094  -2.8380720   0.7252599
  27.6332094 -15.8390720 -13.4347401  27.8772094 -16.6250720 -12.9467401
  28.4682094 -15.4640720 -13.7177401  30.2282094   4.1349280 -11.6377401
  29.4042094   4.5509280 -11.8907401  30.2462094   3.3159280 -12.1327401
  22.2582094 -18.4540720  -7.4127401  23.1182094 -18.8620720  -7.5157401
  21.7642094 -19.0680720  -6.8687401   8.4422094 -14.7530720  -5.2227401
   7.5542094 -14.8260720  -4.8757401   8.7352094 -13.8830720  -4.9527401
   8.3912094  -3.2320720 -11.2267401   8.9742094  -3.1040720 -10.4777401
   7.6012094  -3.6220720 -10.8527401  32.5162094  -8.0610720  -7.8047401
  32.2202094  -7.3330720  -7.2587401  33.3062094  -8.3810720  -7.3687401
  34.2992094   6.2919280  -5.0857401  33.8172094   5.7849280  -4.4327401
  35.1972094   6.3169280  -4.7557401  31.9752094 -19.4490720 -13.4867401
  31.3712094 -20.1920720 -13.4737401  32.8452094 -19.8480720 -13.4817401
  26.6052094  -6.3960720  -3.2927401  27.4202094  -6.8910720  -3.3797401
  26.8872094  -5.5100720  -3.0647401  34.9532094  -7.9650720 -15.5387401
  34.9262094  -7.7220720 -14.6137401  35.0882094  -7.1370720 -16.0007401
  30.0342094  -7.1800720   9.9002599  30.2602094  -6.2700720  10.0952599
  29.5272094  -7.1320720   9.0902599  31.6922094 -17.7780720 -11.0487401
  31.8532094 -18.4380720 -11.7227401  32.5562094 -17.6010720 -10.6747401
  35.0792094  -5.6040720 -17.5717401  34.2502094  -6.0690720 -17.6907401
  35.4572094  -5.5600720 -18.4497401  28.6082094 -15.6050720  -5.6597401
  27.9322094 -15.1100720  -6.1227401  29.2262094 -15.8640720  -6.3437401
  11.5932094 -10.6940720 -18.3377401  10.8872094 -10.1210720 -18.0387401
  12.3112094 -10.5300720 -17.7257401  25.1362094  -4.3890720  -8.0897401
  25.0932094  -5.3250720  -8.2867401  26.0052094  -4.2660720  -7.7057401
  32.6682094  -9.6000720  -9.9797401  32.3072094  -9.0520720  -9.2827401
  33.4672094  -9.9700720  -9.6047401  34.4252094 -16.5940720 -11.3247401
  34.5782094 -15.6730720 -11.1117401  34.7482094 -16.6890720 -12.2207401
  31.3262094 -12.5930720   4.9902599  30.6502094 -13.1340720   4.5832599
  32.1082094 -13.1450720   4.9902599  23.9732094  -3.1430720 -17.7047401
  23.9092094  -4.0340720 -18.0487401  24.6002094  -2.7080720 -18.2817401
  30.0362094  -7.9920720   0.5742599  30.7482094  -8.2930720   0.0092599
  29.2942094  -8.5510720   0.3432599  30.4462094 -21.0950720  -5.1607401
  30.8912094 -21.8020720  -5.6277401  31.1362094 -20.4590720  -4.9737401
  15.7012094  -2.6390720 -14.6917401  15.6322094  -3.5690720 -14.4757401
  15.0612094  -2.5070720 -15.3907401   8.1022094  -9.3660720 -15.8727401
   7.9542094  -8.7040720 -16.5477401   7.4322094 -10.0300720 -16.0367401
  23.4492094 -15.9010720  -7.5807401  24.3432094 -16.2110720  -7.4407401
  22.9142094 -16.6940720  -7.5597401  32.4482094 -19.0420720  -4.2357401
  33.3472094 -19.3660720  -4.1717401  32.3002094 -18.9290720  -5.1747401
  33.2242094 -11.7940720  -6.9647401  33.5402094 -12.4620720  -6.3557401
  32.2872094 -11.7260720  -6.7807401  30.2082094 -13.1300720 -15.8807401
  30.4022094 -12.1940720 -15.9357401  30.6252094 -13.4140720 -15.0667401
  25.5842094 -19.7970720 -14.8787401  25.3592094 -20.5320720 -14.3087401
  26.5402094 -19.7570720 -14.8517401  35.1762094 -12.3510720   6.0332599
  35.7672094 -12.3000720   6.7842599  34.6632094 -11.5440720   6.0762599
  36.5952094  -1.0990720  -6.9027401  35.7032094  -1.0910720  -6.5557401
  36.4832094  -1.1130720  -7.8527401  27.0972094 -13.1970720  -9.3197401
  27.0972094 -12.3130720  -9.6867401  27.8012094 -13.6490720  -9.7827401
  29.8792094 -10.1940720   6.7662599  29.9512094 -11.0080720   6.2672599
  30.7712094 -10.0160720   7.0652599  29.5302094  -3.7410720  -5.6577401
  29.6662094  -3.0070720  -5.0597401  28.6832094  -3.5640720  -6.0677401
  25.7412094  -2.6380720   5.2962599  25.9812094  -3.2640720   5.9802599
  26.5402094  -2.1360720   5.1392599   8.1662094  -9.7800720 -12.9197401
   7.9932094  -9.9950720 -13.8367401   8.0252094 -10.6020720 -12.4497401
  25.7322094 -15.3290720 -10.4397401  25.8742094 -15.2590720 -11.3837401
  26.0462094 -14.4970720 -10.0867401  24.7702094 -19.4470720  -7.6867401
  24.7232094 -19.6390720  -6.7497401  24.6292094 -20.2920720  -8.1117401
  30.2752094 -15.5190720 -17.0997401  30.3052094 -14.6010720 -16.8307401
  29.7642094 -15.5160720 -17.9087401  26.6172094   7.4539280 -18.5167401
  27.5742094   7.4459280 -18.5227401  26.3772094   6.9339280 -17.7497401
  30.2802094 -16.9830720   7.2312599  30.9802094 -17.4110720   6.7392599
  29.6432094 -16.7230720   6.5662599  36.5902094  -0.2610720  -2.5827401
  36.3062094   0.5509280  -3.0027401  37.4792094  -0.0760720  -2.2807401
  37.1872094 -18.2520720 -10.6507401  36.4752094 -18.8770720 -10.5137401
  36.8112094 -17.4040720 -10.4167401  15.1102094 -20.6350720 -12.3247401
  15.5732094 -20.1600720 -11.6347401  14.7992094 -19.9520720 -12.9187401
  33.2502094 -15.3620720 -16.5127401  33.9632094 -15.0880720 -17.0897401
  32.6632094 -15.8630720 -17.0787401  32.5992094  -0.7490720 -17.8537401
  32.6872094  -0.5640720 -18.7887401  33.4112094  -1.1990720 -17.6207401
  35.5532094 -16.0970720  -0.0847401  35.9912094 -15.5710720  -0.7537401
  35.2472094 -16.8740720  -0.5527401  20.8932094 -20.7560720   9.4082599
  19.9962094 -20.8890720   9.7132599  21.4322094 -20.8720720  10.1912599
  28.1292094 -17.1800720  -1.6307401  27.7692094 -17.6580720  -2.3777401
  28.7112094 -16.5280720  -2.0217401  26.7392094  -8.1090720   9.9342599
  26.8082094  -8.6310720  10.7342599  27.1262094  -8.6600720   9.2542599
  36.5922094 -11.7870720 -18.1697401  36.9702094 -11.9470720 -19.0337401
  36.0752094 -12.5720720 -17.9847401  31.0012094  -4.7750720  10.3282599
  30.9642094  -4.1820720  11.0782599  31.8422094  -4.5850720   9.9122599
  28.6072094  -8.3570720   4.8682599  28.8082094  -9.2230720   5.2242599
  28.4662094  -8.5080720   3.9342599  31.5712094  -5.1130720   7.1342599
  31.6862094  -4.2270720   6.7922599  31.2252094  -4.9860720   8.0182599
  36.3632094 -11.1860720   3.0992599  35.4712094 -10.9760720   2.8222599
  36.2812094 -11.4020720   4.0282599  34.7032094  -9.9150720  -0.5587401
  34.7722094 -10.8680720  -0.6187401  34.7922094  -9.7260720   0.3752599
  35.3062094  -8.4880720   4.5982599  35.9492094  -8.8880720   5.1852599
  34.6402094  -8.1270720   5.1832599  31.3002094 -19.8290720   8.7292599
  31.9682094 -20.1340720   8.1152599  31.5932094 -18.9550720   8.9872599
  28.9512094  -8.2030720 -17.0017401  28.9612094  -7.8570720 -17.8937401
  28.1432094  -8.7140720 -16.9517401   7.8702094 -17.0830720   7.1942599
   8.0092094 -17.2290720   6.2592599   8.0642094 -16.1550720   7.3242599
  35.2182094   4.2059280 -19.1847401  34.8392094   4.8199280 -19.8147401
  35.9782094   4.6669280 -18.8297401  28.3812094 -16.5640720   5.0222599
  27.5372094 -16.3000720   5.3872599  28.4432094 -17.5000720   5.2122599
  33.7312094 -15.9850720   6.5532599  33.0082094 -16.5980720   6.4202599
  34.5102094 -16.4700720   6.2802599  35.9472094   6.6199280 -16.3377401
  36.0632094   5.7209280 -16.0297401  36.6652094   6.7579280 -16.9547401
   9.8362094 -14.4920720   3.9442599  10.1032094 -13.6800720   3.5122599
   9.2912094 -14.9400720   3.2962599  29.6202094   2.9069280 -18.5667401
  28.8442094   2.8349280 -18.0107401  29.6932094   2.0509280 -18.9887401
  34.1962094 -13.8100720   1.5242599  34.3512094 -13.9970720   2.4502599
  33.3622094 -14.2390720   1.3302599  26.7442094  -2.3050720 -14.5937401
  27.0152094  -3.0630720 -15.1107401  26.7592094  -1.5750720 -15.2127401
  34.1272094 -10.9930720 -13.8377401  34.4842094 -10.1280720 -13.6397401
  34.7302094 -11.3590720 -14.4857401  29.3742094 -14.2150720   3.8482599
  29.8202094 -14.3340720   3.0102599  29.1722094 -15.1040720   4.1412599
  30.2422094   5.2579280  -3.4297401  29.3052094   5.2559280  -3.2357401
  30.3652094   4.5179280  -4.0247401  33.2702094  -6.5880720   3.5262599
  34.0172094  -6.9950720   3.0872599  33.3552094  -6.8550720   4.4412599
   8.9012094 -16.8160720 -15.1587401   8.5802094 -17.2330720 -15.9587401
   8.2732094 -17.0750720 -14.4847401  33.8992094   7.3299280 -18.1617401
  34.7192094   6.9789280 -17.8147401  33.5192094   7.8189280 -17.4317401
  31.4432094   1.9789280  -1.0177401  31.4632094   1.1929280  -0.4707401
  32.3362094   2.0599280  -1.3537401  34.5962094   6.4799280   8.9722599
  34.0532094   7.0109280   9.5562599  35.2562094   7.0889280   8.6402599
  31.3632094  -3.0550720 -17.6197401  31.7212094  -2.1900720 -17.8207401
  32.0152094  -3.4570720 -17.0447401  32.4322094  -6.4280720  -0.1467401
  31.8682094  -6.2240720   0.6002599  32.2152094  -5.7630720  -0.7997401
  35.0762094 -18.6250720 -18.5967401  34.3262094 -19.1980720 -18.4357401
  34.7582094 -17.7480720 -18.3857401  24.7762094 -15.6190720   2.4792599
  25.1142094 -16.5130720   2.5292599  25.4272094 -15.1440720   1.9622599
  25.8202094 -17.7710720   8.3132599  26.6332094 -18.2690720   8.2282599
  25.7732094 -17.5440720   9.2422599  36.4052094  -9.8540720   6.8952599
  36.5732094 -10.4100720   7.6562599  36.7632094  -9.0000720   7.1382599
  27.2552094 -14.9620720   1.2912599  27.5982094 -15.8240720   1.0562599
  28.0342094 -14.4270720   1.4432599  36.6012094 -18.3980720  -3.3137401
  36.4242094 -19.1790720  -2.7887401  36.0942094 -17.7050720  -2.8897401
  33.3292094  -9.1660720   8.2412599  32.6202094  -9.3310720   8.8622599
  34.0902094  -8.9760720   8.7892599  25.0672094 -13.9390720   4.7362599
  24.9452094 -14.8880720   4.7062599  24.2032094 -13.5930720   4.9622599
  28.7512094  -5.8810720   6.0342599  29.4292094  -6.0610720   6.6852599
  28.5742094  -6.7310720   5.6302599  37.0372094 -18.9700720   9.3222599
  36.4992094 -18.6400720  10.0412599  36.9072094 -18.3380720   8.6152599
  31.1882094 -16.8570720 -14.3147401  31.0722094 -17.0410720 -15.2467401
  31.4352094 -17.6990720 -13.9327401  35.8852094 -16.5830720   4.5872599
  36.4162094 -15.8990720   4.9962599  36.4582094 -17.3490720   4.5622599
   9.7042094 -17.7730720   9.6082599   9.5272094 -16.8340720   9.6512599
   9.1922094 -18.0810720   8.8602599  17.0772094  -9.7580720  -2.2067401
  17.3882094 -10.3400720  -1.5137401  17.3102094 -10.2080720  -3.0197401
  27.3232094  -5.3440720   9.5922599  27.1092094  -6.2590720   9.4132599
  27.7642094  -5.3620720  10.4422599  27.1902094 -12.3600720   4.0232599
  27.9882094 -12.8880720   4.0702599  26.4912094 -12.9590720   4.2872599
  30.7932094  -8.8430720  -5.1927401  30.4942094  -8.9360720  -6.0967401
  31.0532094  -7.9250720  -5.1187401  29.1142094  -3.1050720   8.0382599
  28.8732094  -2.3460720   8.5692599  28.3932094  -3.7230720   8.1602599
  27.8472094  -0.9100720   9.1672599  27.9942094  -0.6310720  10.0702599
  27.7522094  -0.0940720   8.6752599  30.2842094 -14.4700720   1.3462599
  30.7592094 -13.7740720   0.8922599  30.7702094 -15.2680720   1.1362599
   7.3082094 -14.3900720   5.6502599   8.1882094 -14.2560720   5.2962599
   6.8652094 -13.5520720   5.5152599  28.4702094 -17.3510720  -9.1487401
  29.3582094 -17.1330720  -8.8657401  28.1442094 -16.5470720  -9.5547401
  12.4652094 -10.0080720 -11.8377401  12.0322094 -10.6410720 -11.2637401
  12.7622094  -9.3150720 -11.2487401  13.2392094 -15.5250720  -6.3957401
  13.9492094 -15.6380720  -7.0277401  13.1672094 -14.5780720  -6.2817401
  33.0652094  -7.3450720   5.9962599  33.1072094  -7.9670720   6.7232599
  32.5412094  -6.6190720   6.3332599  34.1562094   4.5589280   2.7892599
  35.0782094   4.6499280   3.0332599  33.9932094   5.2879280   2.1912599
   7.6962094 -11.7980720  -5.4877401   7.0142094 -11.7830720  -4.8157401
   7.4122094 -12.4750720  -6.1027401  29.1942094  -7.6170720  -3.2677401
  29.8352094  -8.1850720  -3.6957401  29.6772094  -7.2130720  -2.5467401
  28.5382094   2.0199280   7.7692599  29.2392094   2.5739280   7.4252599
  28.0072094   2.6089280   8.3042599  31.3012094 -17.8480720   1.7372599
  31.7752094 -17.0880720   1.3982599  31.7292094 -18.0450720   2.5702599
  20.9292094 -15.1110720  -3.7467401  21.4322094 -14.7160720  -4.4587401
  20.6152094 -14.3660720  -3.2337401  35.3752094  -9.0470720   9.9632599
  36.2252094  -8.6080720   9.9592599  35.3922094  -9.5960720  10.7472599
  26.5402094 -12.4690720   0.5792599  26.1572094 -11.6660720   0.9322599
  26.2992094 -13.1480720   1.2102599  24.4032094 -19.3220720  -5.1227401
  24.6442094 -19.8800720  -4.3827401  24.1832094 -18.4790720  -4.7257401
  13.3632094 -17.9180720   4.4752599  14.2192094 -18.1300720   4.8482599
  12.8142094 -17.7190720   5.2332599  34.6612094 -13.2680720 -12.0087401
  34.2662094 -12.5080720 -12.4367401  34.6402094 -13.9550720 -12.6747401
  11.8262094 -13.3580720 -19.0247401  11.7372094 -12.4220720 -18.8457401
  12.7672094 -13.5240720 -18.9697401  10.7662094 -16.2700720  -4.6627401
  11.4742094 -15.8170720  -5.1217401  10.0342094 -15.6530720  -4.6817401
  21.5552094 -12.9690720   1.1052599  21.6142094 -12.0170720   1.1822599
  21.5852094 -13.1360720   0.1632599  26.8272094  -4.5010720   2.2802599
  27.4622094  -4.3060720   2.9692599  26.5942094  -3.6460720   1.9182599
  34.3222094  -9.1820720   2.0462599  33.5412094  -9.6690720   2.3092599
  34.8922094  -9.2080720   2.8142599   8.8972094 -17.0050720  -2.0237401
   8.4552094 -17.4510720  -2.7467401   8.2682094 -16.3470720  -1.7277401
  10.9732094 -18.4250720 -13.8447401  11.9272094 -18.3480720 -13.8117401
  10.6902094 -17.6800720 -14.3747401  29.4972094 -11.2080720   2.3782599
  28.9082094 -10.4580720   2.2882599  28.9502094 -11.8980720   2.7552599
  35.8002094  -1.0110720   0.9952599  36.3902094  -0.7010720   1.6812599
  35.6942094  -0.2600720   0.4112599  25.7032094   4.1369280 -18.6687401
  25.8002094   5.0389280 -18.3627401  26.3842094   4.0359280 -19.3347401
  31.5072094  -6.2460720  -5.9527401  30.9252094  -5.5170720  -6.1657401
  32.0692094  -5.9080720  -5.2547401  29.7342094  -5.9870720 -15.0977401
  29.0762094  -5.4760720 -15.5697401  29.6772094  -6.8630720 -15.4787401
  26.7412094 -21.5050720  -2.1487401  27.0392094 -21.2150720  -3.0107401
  25.8672094 -21.1270720  -2.0567401  31.7652094   4.6199280   0.3822599
  32.4992094   4.1699280  -0.0367401  30.9892094   4.2789280  -0.0637401
  29.1582094   8.1669280 -15.0957401  28.6792094   8.9889280 -14.9997401
  29.4802094   7.9719280 -14.2157401  26.9652094   2.4339280  -5.8257401
  27.4652094   2.5769280  -6.6297401  27.5672094   1.9629280  -5.2497401
  23.4242094 -18.9710720 -12.3497401  23.6852094 -19.8470720 -12.6327401
  24.2442094 -18.5440720 -12.1037401  25.0422094 -17.9150720 -10.5627401
  25.2092094 -16.9850720 -10.4067401  24.8822094 -18.2800720  -9.6927401
  27.5162094   2.5439280 -16.5617401  26.7922094   3.0329280 -16.9507401
  27.4372094   2.7059280 -15.6217401  28.8862094 -21.5520720   0.0202599
  29.4982094 -21.7660720  -0.6847401  28.1432094 -21.1430720  -0.4237401
  34.3362094  -0.1490720 -11.2597401  34.2042094   0.4349280 -10.5127401
  33.5532094  -0.6990720 -11.2767401  28.3012094 -19.4530720 -14.6467401
  28.2982094 -18.9040720 -13.8617401  28.7482094 -18.9240720 -15.3077401
  29.1952094 -11.4240720  -3.1657401  29.1702094 -11.2450720  -4.1067401
  30.0752094 -11.7690720  -3.0107401  23.7962094  -3.4730720  -6.0307401
  23.9162094  -4.0630720  -6.7747401  24.6342094  -3.0200720  -5.9467401
  35.0512094  -4.1320720 -10.0247401  34.9342094  -4.2660720  -9.0847401
  35.4952094  -3.2860720 -10.0927401   9.2672094   6.7699280 -15.8777401
   8.8352094   7.2109280 -16.6087401   9.6542094   7.4799280 -15.3647401
  24.6462094  -1.9490720 -12.4527401  23.7582094  -2.2940720 -12.3587401
  24.9082094  -2.2000720 -13.3387401  32.6892094   3.7909280   9.4002599
  33.5372094   3.3519280   9.3242599  32.2312094   3.5689280   8.5892599
  33.8622094  -4.0000720  -5.8267401  33.4662094  -3.7800720  -4.9827401
  33.9992094  -4.9470720  -5.7867401  27.1192094   1.9829280 -13.9337401
  26.6462094   1.1509280 -13.9167401  28.0332094   1.7419280 -13.7827401
  30.2312094   0.0619280  -5.8947401  29.7562094   0.0459280  -6.7257401
  31.1392094  -0.1240720  -6.1337401  28.7132094   5.4599280 -15.4517401
  29.0202094   5.1389280 -16.2997401  28.9882094   6.3769280 -15.4287401
  29.7532094   1.6189280 -13.1367401  29.7012094   0.8349280 -12.5897401
  30.6712094   1.6659280 -13.4037401  32.4162094 -18.3170720  -6.9757401
  32.0432094 -18.9240720  -7.6147401  33.2722094 -18.0850720  -7.3357401
  31.2992094   0.2619280 -15.6507401  31.9442094   0.8849280 -15.3167401
  31.6242094   0.0209280 -16.5177401  32.5102094  -5.0440720 -15.6557401
  32.6172094  -5.7000720 -16.3447401  31.6762094  -5.2660720 -15.2407401
  32.8602094  -0.6740720   3.8642599  33.1252094   0.1289280   3.4162599
  32.2152094  -1.0730720   3.2812599  35.2592094  -6.5210720  -5.2607401
  35.5152094  -7.4100720  -5.5047401  35.8932094  -5.9580720  -5.7067401
  28.6842094  -3.8870720 -10.3947401  27.8742094  -3.5990720  -9.9737401
  28.3942094  -4.3940720 -11.1527401  28.4962094  -0.2660720  -8.4787401
  27.5592094  -0.1830720  -8.3017401  28.5432094  -0.6420720  -9.3577401
  27.1282094   4.3989280   8.9942599  26.2422094   4.7549280   8.9312599
  27.5692094   4.7109280   8.2042599  29.9552094  -2.2520720  -2.0067401
  29.4882094  -1.5010720  -2.3747401  30.6132094  -1.8650720  -1.4287401
  26.9002094  -0.0240720 -11.7947401  26.3052094  -0.6920720 -12.1357401
  27.6982094  -0.5040720 -11.5757401  30.8912094  -3.8160720  -8.8727401
  31.3402094  -4.6300720  -9.0997401  30.1402094  -3.7840720  -9.4657401
  34.6582094   4.2719280 -12.8787401  34.9452094   3.3689280 -12.7487401
  34.5832094   4.3659280 -13.8287401  34.3412094   3.6589280  -0.5247401
  34.4182094   3.0269280  -1.2387401  35.1302094   4.1959280  -0.5927401
  36.1852094  -6.3140720  -2.0017401  35.8552094  -6.5200720  -1.1277401
  35.7452094  -6.9390720  -2.5777401  24.2122094   1.1459280  -1.7167401
  24.0682094   0.4509280  -2.3597401  23.9632094   1.9499280  -2.1717401
  32.7032094 -19.4230720 -17.1117401  31.8842094 -18.9300720 -17.1567401
  32.4662094 -20.2450720 -16.6827401  35.0252094  -5.0860720 -14.4247401
  34.3522094  -5.1190720 -15.1047401  35.4142094  -4.2150720 -14.5137401
  25.3492094 -10.1160720  -1.2547401  25.3002094  -9.8750720  -0.3297401
  26.2152094  -9.8190720  -1.5337401  18.9822094 -17.3830720  -3.9197401
  18.2452094 -17.1770720  -3.3437401  19.6842094 -16.8020720  -3.6277401
  31.8152094   8.1489280 -16.1207401  30.8682094   8.0359280 -16.0447401
  32.1692094   7.7399280 -15.3307401  31.3422094   6.9049280 -10.7147401
  32.1742094   6.4319280 -10.6997401  30.7112094   6.2919280 -10.3377401
  34.8172094   6.7789280 -11.7997401  34.7542094   5.8269280 -11.8807401
  34.7422094   6.9439280 -10.8597401  33.9052094   1.6729280  -2.2687401
  34.2342094   1.9659280  -3.1187401  33.6282094   0.7689280  -2.4167401
  35.8302094   1.8529280 -17.2537401  36.7342094   2.1579280 -17.1857401
  35.4172094   2.4599280 -17.8677401  25.2892094   7.7699280  -5.5367401
  26.0122094   8.3929280  -5.4687401  25.7082094   6.9389280  -5.7587401
  36.8992094   5.4709280  -1.2337401  36.7382094   5.9349280  -2.0557401
  36.4512094   5.9949280  -0.5707401  32.4902094   4.4459280  -7.6127401
  32.2392094   4.0329280  -8.4387401  31.8642094   5.1619280  -7.5027401
  22.6482094   1.8979280 -16.3497401  23.1312094   1.7159280 -17.1557401
  22.5532094   1.0429280 -15.9297401  20.6982094   6.3549280  -4.0227401
  21.6342094   6.2859280  -3.8357401  20.4512094   5.4859280  -4.3387401
  32.3542094   3.5949280 -17.5747401  31.4432094   3.3039280 -17.5587401
  32.5752094   3.6409280 -18.5047401  28.3412094   5.6019280 -12.8377401
  28.6062094   5.3749280 -13.7287401  28.7232094   6.4659280 -12.6857401
  24.2412094   5.2969280   8.8192599  23.5802094   5.5449280   9.4652599
  23.7392094   4.9299280   8.0912599  23.2342094 -17.0000720  -3.6147401
  23.2682094 -17.0540720  -2.6597401  22.6402094 -16.2700720  -3.7917401
  10.0672094   5.8989280  -7.1187401   9.2112094   5.4739280  -7.1707401
  10.4552094   5.7659280  -7.9827401  35.8792094  -2.3630720 -15.5237401
  36.7472094  -2.7410720 -15.6687401  35.3492094  -2.6960720 -16.2477401
  34.5072094  -2.6740720 -17.8437401  35.0002094  -2.3890720 -18.6137401
  34.5342094  -3.6300720 -17.8817401   7.3582094   4.3079280 -15.7437401
   7.7902094   3.7659280 -16.4047401   8.0312094   4.9289280 -15.4657401
  29.0942094  -1.2990720 -11.0997401  28.9792094  -2.2430720 -10.9967401
  29.5992094  -1.2050720 -11.9067401  28.0082094   4.2179280  -7.8397401
  27.7912094   4.3809280  -8.7577401  27.9832094   5.0819280  -7.4297401
  34.5442094 -20.3840720 -13.1187401  34.8182094 -19.9010720 -13.8987401
  35.2012094 -21.0730720 -13.0197401  25.6802094  -0.6710720  -8.0457401
  25.4772094  -1.3010720  -8.7367401  25.0582094   0.0429280  -8.1807401
  34.7802094   7.3589280  -8.9477401  34.6392094   7.8069280  -8.1137401
  35.6892094   7.0629280  -8.9117401  36.6922094 -11.9550720 -15.4467401
  36.4242094 -12.1230720 -16.3497401  37.5262094 -12.4150720 -15.3537401
  32.1272094   6.9879280  -6.4917401  32.8552094   6.5019280  -6.1047401
  32.5372094   7.7479280  -6.9037401  33.4482094  -0.9880720  -2.8527401
  33.1472094  -1.8280720  -3.1987401  34.3392094  -1.1600720  -2.5477401
   8.1082094   8.3949280  -9.4377401   8.6062094   7.8339280 -10.0337401
   7.2652094   8.5189280  -9.8737401   7.3162094 -21.2850720 -13.2417401
   7.3212094 -21.3570720 -14.1967401   7.8612094 -22.0130720 -12.9437401
  27.2932094   4.7499280 -10.4287401  27.5702094   4.8049280 -11.3427401
  27.0662094   5.6489280 -10.1917401  30.8252094   7.6199280   7.9882599
  31.0502094   7.0919280   8.7542599  30.9022094   8.5249280   8.2902599
  24.9902094 -20.0660720 -17.3707401  25.0052094 -20.2560720 -16.4327401
  25.1832094 -20.9060720 -17.7887401  28.4722094  -0.1230720 -16.1827401
  29.3782094   0.0379280 -15.9197401  28.1162094   0.7469280 -16.3597401
  32.0212094  -3.4290720  -3.8557401  32.3052094  -4.2890720  -3.5477401
  31.4502094  -3.1020720  -3.1607401  33.1272094   1.5129280  -9.2117401
  32.2282094   1.3349280  -8.9367401  33.0652094   2.3149280  -9.7307401
  15.0332094 -16.9100720   9.4452599  15.4082094 -16.8250720  10.3212599
  14.5502094 -17.7360720   9.4692599   7.7382094   1.4689280 -10.9997401
   7.3732094   1.8739280 -11.7857401   7.0442094   1.5469280 -10.3447401
  28.2792094 -18.7170720   8.3322599  28.8162094 -19.2980720   8.8712599
  28.8932094 -18.0610720   8.0012599  26.2812094   3.6919280  -1.7547401
  26.0322094   3.9569280  -0.8697401  25.7062094   2.9529280  -1.9547401
  31.8762094   4.9319280   4.6032599  32.6482094   4.8439280   4.0442599
  31.2082094   4.3939280   4.1772599  26.9762094   5.7489280   3.9072599
  27.7262094   5.5789280   3.3372599  26.7902094   6.6809280   3.7862599
  33.2662094   7.0919280 -14.0587401  33.7052094   7.3819280 -13.2587401
  33.7182094   6.2829280 -14.2997401  29.1862094   5.9829280 -18.3677401
  30.1112094   6.0479280 -18.6047401  28.9152094   5.1249280 -18.6947401
  24.8002094  -0.8190720 -16.1617401  24.6022094  -1.6700720 -16.5537401
  24.9602094  -0.2430720 -16.9087401  35.8902094   1.6719280   0.9232599
  36.7442094   2.0729280   0.7642599  35.2692094   2.2419280   0.4682599
  26.3712094   0.8279280  -0.0127401  26.0632094   0.4879280   0.8272599
  25.5832094   0.8829280  -0.5527401  36.1132094  -2.2090720   9.7272599
  35.6812094  -2.5340720   8.9372599  36.9322094  -2.7010720   9.7732599
  29.6402094   1.2679280   5.0012599  30.4772094   1.7329280   5.0212599
  29.1082094   1.7579280   4.3742599  36.5202094  -1.4570720  -9.7747401
  37.3262094  -1.0560720 -10.1007401  35.9002094  -1.3690720 -10.4987401
  36.9262094 -20.3140720   3.3412599  37.1592094 -20.9660720   2.6802599
  35.9842094 -20.4290720   3.4702599  33.5882094 -11.4350720  10.2842599
  33.5682094 -10.8840720  11.0662599  33.4402094 -10.8270720   9.5592599
  36.2872094   4.8679280   6.6002599  35.7112094   4.9219280   7.3622599
  35.7792094   4.3829280   5.9492599  34.6162094   3.0649280   5.1782599
  33.8012094   2.9769280   4.6852599  34.5552094   2.3989280   5.8632599
  33.6392094  -3.3210720   4.5942599  33.7852094  -2.4900720   4.1432599
  32.7042094  -3.4950720   4.4832599  33.8152094 -16.3950720  10.7702599
  32.9912094 -16.7920720  10.4882599  33.8102094 -15.5250720  10.3712599
  31.0642094   0.2019280   7.7942599  31.7502094   0.6829280   7.3322599
  30.2802094   0.7409280   7.6862599  35.2542094  -6.5550720   0.8052599
  35.2612094  -5.6200720   0.5972599  34.3762094  -6.7180720   1.1482599
  33.2512094  -4.0260720   9.4852599  33.9412094  -4.6560720   9.2802599
  33.6122094  -3.1800720   9.2202599  37.0932094   6.4689280   2.4802599
  36.5632094   6.8179280   3.1972599  37.2292094   5.5489280   2.7072599
  34.7432094   1.7369280   9.0692599  35.3822094   2.2369280   9.5762599
  35.2462094   1.3729280   8.3412599  34.9972094  -3.6460720   7.2522599
  34.5472094  -3.2600720   6.5012599  35.0582094  -4.5780720   7.0422599
  28.0102094  -1.1250720   5.1602599  28.6292094  -0.3980720   5.2252599
  27.9972094  -1.3460720   4.2282599  33.3042094 -20.8870720   7.1532599
  33.0742094 -21.4760720   6.4352599  34.0972094 -21.2670720   7.5312599
  31.2852094  -9.3080720   9.9992599  30.8922094  -8.4350720   9.9912599
  30.5482094  -9.9010720  10.1492599  10.9832094 -18.9240720 -17.8497401
  10.3462094 -18.4660720 -18.3987401  10.4562094 -19.5100720 -17.3077401
  36.2652094   0.4459280   7.1082599  36.9802094  -0.0580720   7.4972599
  36.6562094   0.8639280   6.3412599  33.6452094   0.5389280   6.4392599
  34.4872094   0.1219280   6.6222599  33.3232094   0.0939280   5.6542599
  31.4572094   7.6509280   5.2772599  31.4742094   7.3849280   6.1962599
  31.6572094   6.8509280   4.7922599  26.5842094   1.2639280   5.8522599
  26.6952094   0.5419280   5.2332599  27.2992094   1.1559280   6.4782599
  27.9252094 -17.6620720   0.8612599  28.0502094 -17.6120720  -0.0857401
  28.7962094 -17.5110720   1.2272599  36.2072094   7.2489280   4.9472599
  37.0492094   7.5999280   5.2392599  36.0332094   6.5179280   5.5402599
  24.0232094 -20.3540720   7.7042599  24.6632094 -20.9690720   8.0642599
  24.3102094 -19.4970720   8.0192599  33.3452094   4.8399280 -15.4767401
  32.8542094   5.6489280 -15.3337401  32.9972094   4.4909280 -16.2967401
  24.2272094   6.8479280   5.4322599  24.7682094   6.9419280   6.2162599
  24.3622094   5.9419280   5.1552599  30.8072094   3.3889280   2.6902599
  30.0392094   3.0349280   2.2412599  31.3372094   3.7739280   1.9922599
  28.4402094   1.9529280   1.4022599  27.7052094   1.5179280   0.9712599
  28.0432094   2.4289280   2.1312599  31.6092094 -12.1480720   0.7302599
  32.4402094 -11.9330720   1.1542599  30.9412094 -11.8070720   1.3252599
   9.8912094  -0.4030720 -18.8507401   9.0502094   0.0549280 -18.8417401
  10.0772094  -0.5430720 -19.7797401  25.7612094   5.0089280   0.5932599
  26.5842094   5.4419280   0.8192599  25.1222094   5.3739280   1.2042599
  31.1452094 -19.8970720   3.9762599  30.2712094 -19.6180720   4.2512599
  31.1882094 -20.8230720   4.2152599  35.9932094  -5.4380720   9.6532599
  36.6022094  -4.7090720   9.5382599  36.5542094  -6.2090720   9.7362599
  30.7802094  -1.1180720 -13.2827401  31.6422094  -1.5170720 -13.1637401
  30.8112094  -0.7340720 -14.1587401  28.2062094   0.3919280  -2.0397401
  27.8282094   0.4969280  -1.1657401  28.6442094   1.2249280  -2.2137401
  36.5452094 -15.0980720   2.3562599  36.1562094 -15.3930720   1.5332599
  36.2132094 -15.7110720   3.0122599  31.7532094   6.3489280  10.2022599
  32.1152094   5.5039280   9.9362599  32.3692094   6.6789280  10.8562599
  29.5032094 -20.9610720 -19.3657401  30.0362094 -21.2380720 -18.6207401
  30.1392094 -20.7470720 -20.0487401   9.2512094 -19.1220720   0.2542599
   9.2232094 -18.4630720  -0.4397401   8.5792094 -19.7580720   0.0092599
  23.2152094   7.6959280  -0.7957401  22.2782094   7.6089280  -0.9727401
  23.3232094   7.3609280   0.0942599  27.5732094   2.6439280   3.8182599
  27.2702094   3.5429280   3.9442599  27.0262094   2.1219280   4.4052599
   8.0562094 -15.3470720 -18.4807401   8.3852094 -14.8930720 -19.2567401
   8.8002094 -15.3660720 -17.8797401  20.3012094   7.6829280  -1.2817401
  20.6082094   7.0939280  -1.9707401  19.5322094   8.1109280  -1.6577401
  28.4752094 -16.3010720  40.5452599  27.7282094 -16.6100720  41.0582599
  28.1072094 -15.6380720  39.9612599  28.3122094 -20.4150720  32.3492599
  28.1522094 -21.2640720  31.9372599  28.8222094 -19.9260720  31.7032599
  13.8982094  -2.8540720  32.0842599  13.5712094  -2.1990720  32.7022599
  14.8402094  -2.6910720  32.0392599  19.0722094  -9.5960720  22.6952599
  18.4772094 -10.3190720  22.8942599  19.9442094  -9.9880720  22.7232599
  13.0662094 -14.5950720  19.3152599  12.6012094 -15.3920720  19.0622599
  13.0902094 -14.0680720  18.5162599  22.2922094  -3.7360720  26.2192599
  21.4812094  -3.9180720  25.7442599  22.9772094  -3.7920720  25.5522599
  16.2512094 -12.8820720  28.4402599  15.6452094 -13.3150720  29.0422599
  16.5812094 -13.5880720  27.8842599  18.4132094 -10.2160720  16.3182599
  17.8292094  -9.7660720  16.9282599  18.8662094 -10.8670720  16.8542599
  24.6542094  -6.3370720  28.5222599  25.1352094  -6.4200720  29.3462599
  25.3192094  -6.4560720  27.8442599  29.2672094 -12.0600720  16.9502599
  29.1782094 -11.8260720  16.0262599  29.9262094 -11.4530720  17.2882599
  12.8022094  -7.8780720  19.5642599  12.9522094  -7.8470720  20.5092599
  11.9412094  -7.4780720  19.4442599  36.4952094  -2.6040720  25.8162599
  36.8352094  -2.0310720  26.5042599  37.0852094  -2.4660720  25.0752599
   9.7202094 -14.4010720  39.4612599  10.4612094 -13.9890720  39.9072599
  10.0502094 -14.6040720  38.5862599  35.2242094 -16.0010720  16.1632599
  34.2842094 -15.8810720  16.0272599  35.4032094 -16.8850720  15.8442599
  25.6192094 -16.7070720  35.6602599  25.3022094 -17.0500720  36.4952599
  25.5592094 -17.4480720  35.0572599  35.9872094 -11.6250720  26.3872599
  35.0482094 -11.5640720  26.2132599  36.0442094 -11.9680720  27.2792599
  25.1652094  -7.1080720  21.2792599  24.4392094  -7.2000720  20.6622599
  24.8912094  -7.6080720  22.0482599  16.8422094   2.4389280  40.8002599
  16.2352094   3.0299280  40.3552599  17.7102094   2.7829280  40.5892599
  21.7182094   4.4849280  12.5052599  22.3422094   4.4789280  11.7792599
  22.1592094   3.9999280  13.2032599   8.7762094 -13.6960720  15.7522599
   9.1002094 -14.4840720  15.3172599   9.5622094 -13.2700720  16.0952599
  11.5652094 -19.8690720  27.2522599  10.6342094 -19.7320720  27.0782599
  11.9552094 -19.9930720  26.3872599  24.1652094  -7.1830720  38.9992599
  25.0072094  -7.5810720  39.2202599  24.3282094  -6.7180720  38.1782599
  18.2062094 -19.3830720  28.7602599  17.9442094 -18.4620720  28.7532599
  18.8792094 -19.4360720  29.4382599  22.3422094 -20.8840720  19.4862599
  21.9522094 -20.1360720  19.0342599  22.2772094 -21.6040720  18.8592599
  22.6062094  -7.5290720  23.7092599  21.9972094  -7.5830720  24.4462599
  22.0552094  -7.3080720  22.9582599  19.4642094 -12.4880720  37.5742599
  19.0632094 -11.7370720  37.1382599  20.1732094 -12.1120720  38.0962599
  35.7222094  -5.9930720  18.2572599  35.6362094  -5.4150720  17.4992599
  35.3752094  -5.4830720  18.9892599  15.5412094 -15.1800720  14.1162599
  16.2052094 -14.6580720  13.6662599  15.1752094 -14.5870720  14.7732599
  31.5722094 -12.1530720  27.9792599  31.9082094 -13.0460720  27.9092599
  31.4782094 -12.0050720  28.9202599  14.9812094  -7.7940720  17.7062599
  14.3462094  -8.0550720  18.3732599  15.5522094  -8.5560720  17.6072599
  16.2732094 -18.7570720  22.9152599  16.4532094 -18.3010720  22.0932599
  16.9602094 -18.4580720  23.5122599  23.0382094  -7.5710720  19.6252599
  22.3522094  -6.9980720  19.2832599  22.5892094  -8.3930720  19.8222599
  14.8362094  -4.2630720  23.1162599  14.3202094  -3.6700720  23.6632599
  14.8012094  -5.1030720  23.5742599  29.6422094 -17.9590720  13.2782599
  28.8692094 -17.9890720  12.7142599  29.9852094 -17.0720720  13.1672599
  28.4162094  -1.0630720  25.5612599  28.0632094  -0.5260720  26.2712599
  29.1352094  -0.5430720  25.2012599  14.3952094 -13.3610720  40.4662599
  14.5472094 -12.8220720  41.2422599  15.2522094 -13.4230720  40.0452599
  17.5972094   4.3199280  37.4092599  17.5892094   4.7189280  36.5392599
  16.8032094   4.6489280  37.8312599  11.8742094 -17.9530720  22.9612599
  11.0212094 -17.6140720  22.6872599  12.4182094 -17.1730720  23.0682599
  20.3342094  -9.2450720  37.6722599  20.7612094  -9.5170720  36.8592599
  21.0492094  -9.1600720  38.3022599  22.7582094 -17.0620720  33.8222599
  23.3102094 -16.4210720  33.3742599  22.4542094 -17.6450720  33.1272599
  19.1292094 -16.6330720  29.0452599  19.9982094 -16.2470720  28.9382599
  18.9532094 -16.5720720  29.9842599  16.5782094 -15.5660720  24.1742599
  15.6552094 -15.7430720  24.3552599  16.7322094 -15.9540720  23.3132599
  19.9142094 -16.8220720  23.6492599  20.7432094 -17.2880720  23.5372599
  19.5572094 -17.1630720  24.4702599  18.1062094  -6.0490720  22.5152599
  17.2582094  -6.4560720  22.3392599  17.9162094  -5.1120720  22.5702599
  18.4652094 -12.9120720  19.9642599  18.5282094 -13.6210720  20.6052599
  17.8602094 -12.2850720  20.3582599  13.1942094 -20.6840720  15.0772599
  14.0432094 -21.0930720  14.9082599  13.3482094 -19.7490720  14.9452599
  16.5992094 -12.8430720  17.1782599  17.0882094 -13.1090720  17.9572599
  17.2062094 -12.2820720  16.6952599  18.1552094  -3.1680720  26.5802599
  18.7902094  -3.6810720  26.0802599  17.3262094  -3.6310720  26.4632599
  16.2602094 -11.4830720  20.5932599  16.4962094 -11.2430720  21.4892599
  15.3272094 -11.6940720  20.6392599  19.3782094 -18.5370720  17.2632599
  19.7702094 -18.0570720  17.9932599  20.0132094 -19.2240720  17.0582599
   9.9512094 -11.2430720  26.5532599   9.3852094 -10.7710720  25.9422599
   9.3452094 -11.6960720  27.1402599  10.9802094 -15.6350720  29.1602599
  11.7232094 -16.1700720  28.8822599  10.2292094 -16.0100720  28.6992599
  14.4522094 -16.0770720  21.3842599  13.8372094 -15.4990720  20.9322599
  14.8282094 -16.6180720  20.6902599  11.6772094 -17.2490720  19.2252599
  11.0062094 -17.8870720  19.4652599  11.9392094 -17.4970720  18.3392599
  25.3932094 -10.3670720  21.7062599  25.9772094 -10.4060720  20.9492599
  24.5162094 -10.4700720  21.3392599  19.8032094 -18.8220720  13.2602599
  19.4352094 -18.4520720  12.4582599  20.4622094 -18.1850720  13.5382599
  30.8662094  -2.3130720  36.2372599  30.1322094  -2.6180720  36.7692599
  31.2622094  -1.6110720  36.7542599  11.1832094 -11.5320720  29.8502599
  11.8932094 -12.0750720  29.5062599  11.3232094 -10.6730720  29.4512599
  20.7922094 -11.8710720  13.7822599  21.2692094 -12.6180720  14.1422599
  21.4082094 -11.1400720  13.8452599  17.8682094 -10.2790720  11.0892599
  18.1502094  -9.5990720  10.4772599  17.7812094  -9.8250720  11.9282599
  22.8262094 -14.9520720  19.6012599  22.8072094 -14.9520720  20.5582599
  23.7282094 -14.7180720  19.3802599  26.0242094  -1.8750720  24.3032599
  26.8402094  -1.7560720  24.7882599  26.2302094  -1.5930720  23.4122599
  14.5442094  -6.6160720  24.7202599  13.9282094  -6.9030720  25.3942599
  14.8992094  -7.4290720  24.3592599  29.3462094  -9.5830720  19.3082599
  29.3902094  -8.6320720  19.2162599  30.0052094  -9.9150720  18.6982599
   8.7632094 -19.7270720  22.9932599   8.8572094 -20.1660720  22.1482599
   8.9682094 -18.8100720  22.8122599  16.9852094  -8.0010720  31.3162599
  17.0992094  -8.9510720  31.3042599  17.4122094  -7.6980720  30.5142599
  13.0652094 -10.4300720  38.9672599  13.8722094 -10.3550720  39.4752599
  12.3832094 -10.5880720  39.6202599  19.8182094  -8.4180720  24.9482599
  19.4502094  -8.2260720  24.0852599  20.1692094  -9.3050720  24.8672599
  17.3302094 -13.0200720  13.5602599  17.9872094 -12.9590720  12.8672599
  17.7812094 -12.7110720  14.3462599  11.8942094  -6.1440720  33.7422599
  11.7512094  -5.6640720  32.9262599  12.1582094  -5.4730720  34.3712599
  17.1602094 -19.9430720  19.7802599  18.0732094 -19.7800720  19.5432599
  17.2032094 -20.3090720  20.6632599  19.7032094 -12.1720720  17.6582599
  20.1112094 -12.6080720  16.9092599  19.8052094 -12.7910720  18.3812599
  27.8692094  -7.0090720  21.4722599  27.6572094  -6.5920720  22.3072599
  27.0182094  -7.2080720  21.0812599  25.4382094 -10.7510720  38.2112599
  25.1272094 -10.6910720  37.3082599  26.3862094 -10.6370720  38.1472599
  12.2532094  -9.3660720  28.7592599  13.0192094  -9.8480720  28.4472599
  11.8762094  -8.9780720  27.9692599  11.6572094 -14.5730720  31.7092599
  11.5632094 -14.8470720  30.7962599  11.6472094 -13.6170720  31.6752599
  23.9862094 -12.7270720  32.5272599  23.3132094 -13.3010720  32.1612599
  24.5712094 -13.3160720  33.0032599  24.5212094 -20.2490720  27.9862599
  24.3332094 -19.3990720  28.3842599  23.7792094 -20.8000720  28.2342599
  15.6892094 -17.4260720  19.2262599  16.0502094 -17.1100720  18.3982599
  16.1682094 -18.2360720  19.4032599  11.3592094 -13.5240720  17.1722599
  10.7872094 -13.2330720  17.8822599  11.5102094 -12.7380720  16.6472599
  28.1182094 -13.4420720  28.4672599  27.6772094 -13.1240720  29.2552599
  28.4832094 -12.6550720  28.0622599  16.9592094 -18.6800720  16.2552599
  17.8082094 -18.8290720  16.6732599  16.9872094 -19.2090720  15.4582599
  16.2132094  -5.1650720  26.2242599  15.9162094  -5.5540720  27.0462599
  15.5902094  -5.4830720  25.5702599  32.1322094 -10.8550720  33.0482599
  31.5932094 -11.4240720  33.5972599  31.5352094 -10.1650720  32.7572599
  20.1792094 -15.4850720  31.5192599  20.4542094 -14.5710720  31.4482599
  20.6422094 -15.8150720  32.2892599  21.1792094 -11.5450720  39.7102599
  21.9062094 -12.1050720  39.9822599  21.5412094 -11.0100720  39.0032599
  22.1942094 -14.4470720  38.6622599  22.4192094 -14.5220720  39.5892599
  21.3372094 -14.8670720  38.5882599  32.1142094  -6.2440720  20.2012599
  32.5032094  -6.9770720  20.6792599  32.5152094  -6.2830720  19.3332599
  12.9292094 -10.0140720  22.9002599  12.6972094  -9.7950720  23.8032599
  13.7722094  -9.5840720  22.7592599  36.2582094 -19.1960720  24.1942599
  36.3772094 -18.8410720  25.0752599  37.1472094 -19.3370720  23.8692599
  22.5342094 -13.7020720  24.1842599  22.6932094 -14.4220720  23.5742599
  23.4072094 -13.4360720  24.4732599   8.3872094  -3.7520720  40.0632599
   9.0922094  -3.4660720  40.6432599   8.8342094  -4.1940720  39.3422599
  11.2682094 -10.5920720  20.8052599  10.5452094  -9.9810720  20.9422599
  11.8742094 -10.4120720  21.5252599   9.6572094 -19.2950720  20.1002599
   9.1082094 -18.5570720  19.8332599   9.0692094 -20.0500720  20.0812599
  19.7612094  -7.3730720  27.3552599  19.8752094  -7.8190720  26.5152599
  20.5802094  -6.8950720  27.4862599  22.8982094  -9.5010720  38.6392599
  23.7352094  -9.9610720  38.7122599  23.1002094  -8.5970720  38.8812599
  15.2322094  -3.2800720  27.8842599  15.0002094  -3.9870720  28.4862599
  15.4292094  -3.7230720  27.0592599  15.2072094 -20.5130720  24.6772599
  15.3742094 -19.7600720  24.1102599  15.7722094 -20.3700720  25.4382599
  26.1782094 -13.2170720  16.5832599  27.0962094 -13.1860720  16.8542599
  26.0322094 -14.1290720  16.3342599  22.8222094  -9.9130720  14.3372599
  23.6422094 -10.3900720  14.4602599  22.6512094  -9.5050720  15.1872599
  20.8082094  -6.5060720  21.8702599  20.0232094  -6.1940720  22.3202599
  20.6882094  -6.2330720  20.9612599  13.9222094 -11.1550720  27.5262599
  14.8582094 -11.3520720  27.4882599  13.5182094 -11.9660720  27.8352599
  20.6312094 -21.0000720  15.7392599  21.4482094 -21.0210720  16.2362599
  20.9052094 -21.0540720  14.8232599  19.0482094 -12.6930720  11.4322599
  18.6602094 -11.8620720  11.1602599  19.9922094 -12.5380720  11.4062599
  21.2422094  -0.8580720  30.4792599  20.3692094  -1.0440720  30.8232599
  21.3012094  -1.3830720  29.6802599  15.9692094  -6.7370720  21.1262599
  15.0862094  -6.8920720  21.4632599  15.9172094  -5.8780720  20.7062599
  32.9632094  -5.9870720  26.2092599  33.7822094  -6.1120720  25.7302599
  33.0182094  -6.6000720  26.9422599  21.9192094 -16.5340720  17.3502599
  22.4752094 -17.3100720  17.2812599  22.4552094 -15.8950720  17.8202599
  21.9282094  -3.1900720  39.4562599  22.2112094  -2.3150720  39.1872599
  22.4482094  -3.3810720  40.2362599  21.9892094  -6.0710720  27.4752599
  22.1002094  -5.2630720  26.9742599  22.8602094  -6.2580720  27.8252599
  14.9152094  -8.3120720  37.3822599  14.6872094  -8.8290720  38.1552599
  15.6132094  -7.7290720  37.6792599  25.9932094  -2.9190720  40.1562599
  26.3612094  -3.8010720  40.1052599  26.6852094  -2.3500720  39.8192599
  34.6402094  -9.0830720  23.2652599  34.1552094  -9.9030720  23.3522599
  35.5032094  -9.3470720  22.9462599  26.9912094 -10.6110720  19.4332599
  27.8942094 -10.3020720  19.3552599  26.4762094  -9.9750720  18.9362599
  20.8632094  -9.5240720  18.9252599  20.1452094  -9.1170720  19.4112599
  20.5782094 -10.4270720  18.7882599  11.6192094 -21.5940720  19.7662599
  12.1412094 -21.2350720  20.4832599  10.8952094 -20.9760720  19.6632599
  20.6792094 -11.3160720  26.0352599  21.3052094 -10.6020720  26.1552599
  21.1982094 -12.0290720  25.6602599  35.9892094 -14.8120720  25.7312599
  35.7822094 -15.2240720  24.8932599  35.1652094 -14.4130720  26.0122599
  13.5382094  -9.0340720  31.4162599  12.9512094  -8.9280720  30.6672599
  13.9952094  -8.1960720  31.4832599   9.3812094 -19.1310720  25.6342599
   9.1732094 -19.5490720  24.7982599   9.9462094 -18.3940720  25.3992599
  27.5412094 -20.3720720  25.0082599  28.4322094 -20.4990720  24.6822599
  27.5152094 -19.4550720  25.2832599  18.3952094  -8.3330720  20.2452599
  18.6802094  -8.3780720  21.1572599  17.6562094  -7.7250720  20.2542599
  13.1482094 -20.2680720  21.4532599  13.8962094 -19.6730720  21.4972599
  12.3892094 -19.7140720  21.6372599  21.2242094 -12.2620720  20.6462599
  20.2732094 -12.3360720  20.5642599  21.5642094 -13.0450720  20.2122599
  21.0282094  -5.5710720  30.5292599  20.5702094  -5.9580720  29.7832599
  21.3402094  -4.7250720  30.2052599  25.1132094  -7.6690720  24.7542599
  24.1602094  -7.6490720  24.8342599  25.4322094  -7.4200720  25.6222599
  25.1512094 -16.7860720  10.9482599  24.2392094 -16.5180720  11.0642599
  25.3852094 -17.2050720  11.7772599  27.9722094  -9.6040720  28.2152599
  28.5182094 -10.3170720  27.8842599  28.0982094  -8.8930720  27.5862599
  23.2832094 -10.8170720  20.1962599  22.4942094 -11.2060720  20.5732599
  23.5202094 -11.4020720  19.4772599  23.9892094  -0.9970720  26.5832599
  24.7282094  -1.5910720  26.4522599  23.9072094  -0.5280720  25.7522599
  13.5692094 -17.6860720  16.8922599  14.0112094 -17.4030720  17.6922599
  13.9642094 -17.1560720  16.1992599  25.0092094 -10.8930720  35.3282599
  24.2382094 -11.3560720  35.0002599  25.7462094 -11.3090720  34.8822599
  34.3402094  -8.4770720  27.1442599  34.6882094  -9.0630720  27.8162599
  33.6582094  -8.9890720  26.7092599  35.6692094 -10.6290720  20.2552599
  36.0832094 -10.3890720  21.0842599  36.0892094 -10.0660720  19.6052599
  13.6192094 -12.3230720  20.2822599  12.8412094 -11.7680720  20.2252599
  13.3802094 -13.1210720  19.8102599  25.1612094 -11.3680720  14.9542599
  25.7512094 -10.6240720  15.0792599  25.4132094 -11.9910720  15.6352599
  21.7512094 -10.2320720  23.1192599  22.5002094  -9.6420720  23.0302599
  22.0292094 -11.0390720  22.6852599  17.7202094 -16.7270720  21.6992599
  17.6342094 -16.0560720  21.0212599  18.5672094 -16.5490720  22.1072599
  25.0442094 -15.7670720  16.9342599  25.9612094 -15.9520720  16.7322599
  24.5552094 -16.1570720  16.2102599  32.0082094 -14.1340720  19.2242599
  32.1182094 -14.8330720  18.5792599  32.6862094 -13.4960720  19.0042599
  16.8372094  -9.7220720  18.4902599  17.5912094  -9.2860720  18.8872599
  16.4652094 -10.2500720  19.1962599  25.0282094 -10.2310720  31.6872599
  24.7652094 -11.0670720  32.0712599  24.2112094  -9.7410720  31.5942599
  23.5942094 -17.9350720  29.6622599  24.2972094 -17.2850720  29.6592599
  23.3842094 -18.0570720  30.5882599  18.8322094 -13.4370720  34.2212599
  19.1072094 -14.0700720  34.8852599  19.1182094 -12.5910720  34.5652599
  25.5262094 -12.9280720  27.6302599  25.3822094 -12.1130720  28.1112599
  26.4422094 -13.1480720  27.7992599  15.0112094 -11.8590720  12.5162599
  15.8862094 -12.1690720  12.7482599  14.5572094 -11.7700720  13.3542599
  14.6542094 -12.0100720  37.1032599  14.2662094 -11.4130720  37.7432599
  15.0562094 -11.4360720  36.4522599  20.6752094 -13.2040720  28.3962599
  19.7592094 -13.0910720  28.6522599  20.9052094 -12.3840720  27.9592599
  34.3202094  -8.0740720  17.1902599  33.4002094  -7.8400720  17.0682599
  34.7182094  -7.2900720  17.5682599  12.5792094 -11.7270720  32.1582599
  11.6752094 -11.4800720  32.3522599  13.0692094 -10.9070720  32.2132599
  22.8862094  -7.9180720  32.1232599  22.1162094  -7.3520720  32.0672599
  22.9322094  -8.1700720  33.0452599  12.5632094 -15.7130720  15.1542599
  13.1252094 -14.9710720  14.9312599  12.3142094 -15.5600720  16.0662599
  28.6872094  -0.6730720  32.2772599  28.7172094   0.2809280  32.2032599
  28.4042094  -0.9710720  31.4132599  23.3862094  -8.7800720  34.9412599
  24.1392094  -9.1830720  35.3732599  22.6952094  -9.4410720  34.9972599
  27.4952094  -8.8820720  32.1342599  26.7532094  -8.8570720  32.7372599
  27.2212094  -8.3410720  31.3932599  30.7742094 -10.2880720  13.9552599
  29.8822094  -9.9420720  13.9372599  31.2992094  -9.6200720  13.5142599
  25.6042094  -6.7930720  31.3402599  26.0272094  -6.3720720  32.0892599
  24.7122094  -6.9720720  31.6382599  22.1632094  -6.3990720  34.5692599
  22.8182094  -5.8450720  34.1442599  22.6742094  -7.0660720  35.0272599
  27.3142094  -4.1500720  27.8712599  28.0442094  -3.5470720  27.7322599
  27.4522094  -4.4950720  28.7532599  24.9102094 -12.5490720  25.1452599
  25.3952094 -11.7240720  25.1472599  24.9502094 -12.8530720  26.0522599
  24.2462094 -17.2730720  14.3082599  24.5102094 -18.1360720  14.6272599
  23.5202094 -17.4510720  13.7092599  19.3302094  -8.5140720  34.0952599
  19.9832094  -8.4070720  33.4032599  19.0152094  -7.6270720  34.2672599
  16.4872094 -16.8150720  27.2932599  15.6652094 -16.7980720  26.8032599
  16.2182094 -16.8540720  28.2112599  17.4722094 -11.6770720  23.2122599
  18.0282094 -12.4490720  23.1042599  17.3702094 -11.5860720  24.1602599
  18.7072094 -10.9090720  35.2472599  18.9622094 -10.0760720  34.8492599
  17.9412094 -11.1890720  34.7462599  36.0182094 -14.2920720  12.9022599
  36.0572094 -14.5860720  13.8122599  36.7272094 -14.7670720  12.4672599
  20.0192094 -15.4680720  36.4702599  19.4092094 -14.7640720  36.6882599
  19.4772094 -16.1320720  36.0442599  29.2612094 -12.1770720  40.0982599
  30.1472094 -12.5370720  40.0452599  28.6872094 -12.9320720  39.9732599
  25.0242094 -15.7630720  28.9662599  25.9272094 -15.9440720  28.7032599
  24.9732094 -14.8080720  29.0092599  23.0832094  -2.1570720  35.4802599
  22.7752094  -2.7260720  36.1852599  24.0372094  -2.1740720  35.5572599
  19.4972094  -3.7260720  29.0892599  18.7872094  -3.7770720  28.4492599
  20.1472094  -3.1540720  28.6812599  28.7642094 -11.4710720  24.1722599
  27.9892094 -11.0490720  24.5432599  28.8872094 -11.0450720  23.3242599
  10.2302094  -8.6910720  36.2232599  10.7222094  -8.8390720  35.4162599
   9.9192094  -9.5600720  36.4782599  21.8672094   7.6749280  37.3152599
  22.5602094   8.2079280  36.9242599  21.5252094   8.2129280  38.0292599
  12.8512094 -13.3890720  28.8662599  13.4502094 -13.6850720  29.5522599
  12.3762094 -14.1780720  28.6062599  13.0982094 -15.3000720  33.7902599
  13.0512094 -16.2560720  33.7752599  12.4452094 -15.0170720  33.1512599
  19.2672094 -19.2760720  36.2692599  19.0822094 -19.2220720  37.2062599
  18.8622094 -18.4920720  35.8982599  10.6602094 -11.9610720  37.7612599
  10.8962094 -12.8470720  37.4872599  11.2852094 -11.7490720  38.4542599
  27.3032094 -17.7270720  25.6412599  27.7952094 -17.0630720  25.1582599
  26.4512094 -17.7580720  25.2062599  17.4772094  -4.6420720  36.8502599
  17.8002094  -5.1800720  36.1262599  17.7222094  -3.7480720  36.6122599
  12.8832094 -15.0030720  38.5792599  13.4602094 -14.7800720  37.8492599
  13.4172094 -14.8570720  39.3602599  16.2102094 -11.4640720  34.0172599
  15.5522094 -10.8710720  34.3802599  15.7242094 -12.2600720  33.8012599
   9.8232094 -12.3760720  23.2692599   9.3122094 -11.7550720  23.7872599
   9.1712094 -12.9570720  22.8792599  17.3072094 -19.8010720  14.0262599
  16.7572094 -19.7300720  13.2452599  18.1612094 -19.4700720  13.7482599
  14.3422094 -14.4240720  36.1552599  13.8612094 -14.5380720  35.3362599
  14.4612094 -13.4780720  36.2342599  21.4982094 -10.7440720  35.6142599
  20.6602094 -10.8780720  35.1722599  21.7972094 -11.6260720  35.8342599
  31.9552094 -15.4940720  27.7602599  31.0162094 -15.5340720  27.5782599
  32.3692094 -15.8230720  26.9622599  12.3442094 -10.0950720  25.7322599
  11.5802094 -10.5150720  26.1262599  13.0942094 -10.5410720  26.1272599
  23.4922094  -3.7180720  29.2642599  23.6572094  -3.0300720  28.6182599
  23.8542094  -4.5100720  28.8682599  18.6102094 -20.1500720  32.9782599
  18.9852094 -20.2690720  33.8512599  19.3602094 -19.9440720  32.4202599
  11.5612094 -19.5290720  33.2062599  12.2322094 -18.9770720  33.6092599
  10.9412094 -18.9100720  32.8222599  16.7332094  -6.7190720  38.6052599
  17.1562094  -5.9540720  38.2142599  16.2472094  -6.3690720  39.3522599
   8.9622094 -20.9380720  39.5502599   9.7622094 -20.4920720  39.8282599
   8.2952094 -20.2510720  39.5422599  19.9182094  -9.3500720  29.5722599
  19.4162094 -10.1400720  29.3752599  19.8392094  -8.8130720  28.7832599
  10.2262094   6.3919280  39.1842599  10.4532094   6.1979280  38.2742599
  10.0922094   7.3389280  39.2012599  16.0102094  -2.2850720  39.4872599
  16.2472094  -2.7990720  40.2592599  15.4152094  -1.6130720  39.8192599
  17.9992094 -17.0540720  35.3202599  17.1002094 -16.9910720  35.6432599
  17.9092094 -17.1000720  34.3682599  15.3462094 -10.1560720  40.1312599
  16.2942094 -10.0260720  40.1392599  15.1772094 -10.7420720  40.8692599
  14.5982094 -13.3170720  33.1532599  14.1912094 -14.1750720  33.2712599
  14.0852094 -12.9010720  32.4602599  13.1462094 -19.0780720  40.2662599
  12.5902094 -19.1500720  41.0412599  12.6622094 -19.5360720  39.5792599
  36.1212094 -21.6590720  37.9822599  36.4912094 -20.9150720  38.4572599
  36.6462094 -21.7200720  37.1842599  26.0142094 -18.0330720  32.9642599
  26.0462094 -18.9470720  33.2482599  26.5242094 -18.0160720  32.1542599
  21.8452094 -19.9200720  34.9422599  22.4862094 -20.0130720  35.6472599
  21.0782094 -19.5340720  35.3652599  16.4072094 -10.7320720  31.4152599
  15.4832094 -10.5750720  31.2212599  16.4152094 -11.0200720  32.3282599
  15.3762094  -4.4110720  34.2042599  16.2562094  -4.4960720  34.5702599
  15.1622094  -3.4830720  34.3052599  14.3982094 -13.5580720  16.0002599
  13.8292094 -12.8060720  16.1652599  15.1562094 -13.4150720  16.5662599
  37.3032094 -13.3990720  22.0362599  37.3802094 -14.3130720  21.7612599
  36.4812094 -13.1000720  21.6482599  28.2522094 -11.9240720  12.6282599
  28.7202094 -12.5470720  13.1832599  28.7322094 -11.9330720  11.7992599
  14.0962094 -16.9940720  26.0852599  13.6142094 -16.4420720  25.4702599
  13.4692094 -17.1790720  26.7842599  22.4382094 -13.2850720  35.9472599
  21.7242094 -13.9180720  36.0182599  22.9092094 -13.3600720  36.7772599
  22.6302094 -21.4030720  23.8432599  23.2952094 -22.0530720  24.0722599
  22.7752094 -20.6840720  24.4572599  31.2142094  -2.1840720  32.0242599
  31.4722094  -3.0680720  32.2862599  30.3592094  -2.0520720  32.4352599
  12.3022094 -17.5580720  37.4872599  11.3742094 -17.4230720  37.2962599
  12.5362094 -16.8340720  38.0672599  11.7552094  -8.8030720  33.9592599
  11.7142094  -7.8570720  34.1012599  12.0712094  -8.8960720  33.0602599
  28.7292094 -19.2850720  34.9202599  28.3822094 -19.4480720  34.0432599
  28.6302094 -20.1200720  35.3772599  22.5032094  -9.5090720  26.9482599
  22.1222094  -8.7510720  27.3922599  23.3602094  -9.6220720  27.3592599
  29.4802094  -3.7530720  34.4222599  29.3702094  -4.5380720  34.9592599
  29.9032094  -3.1220720  35.0032599  14.3982094  -9.7490720  35.0082599
  13.5572094  -9.4280720  34.6802599  14.7472094  -9.0230720  35.5242599
   7.3542094 -12.7560720  30.9852599   7.0702094 -13.5590720  31.4212599
   7.1682094 -12.0610720  31.6162599  18.5522094 -11.6340720  29.3692599
  17.9382094 -12.2920720  29.0442599  18.4002094 -11.6090720  30.3142599
  17.9642094 -11.5970720  25.9692599  18.8972094 -11.4040720  25.8752599
  17.9342094 -12.3750720  26.5252599  10.7442094 -14.3730720  36.6582599
  11.5442094 -14.8920720  36.7422599  10.5982094 -14.3090720  35.7142599
  27.0152094  -5.8150720  23.7012599  27.7742094  -5.8630720  24.2822599
  26.4812094  -6.5730720  23.9402599   8.1782094  -7.3840720  40.2532599
   8.7262094  -6.6200720  40.0712599   8.1362094  -7.4270720  41.2082599
  18.5332094  -8.3700720  39.4982599  17.8932094  -7.8230720  39.0432599
  19.0912094  -8.7170720  38.8022599  35.6202094 -20.2470720  28.3862599
  35.5632094 -21.1710720  28.6302599  35.5662094 -19.7760720  29.2182599
  24.1502094  -4.9500720  33.2442599  23.9942094  -4.0270720  33.4452599
  25.0502094  -4.9760720  32.9202599  34.1172094  -9.6560720  12.4752599
  34.1082094  -9.0810720  13.2412599  34.8212094 -10.2800720  12.6502599
  23.0212094 -18.2530720  12.1072599  23.5802094 -19.0290720  12.0692599
  22.6762094 -18.1620720  11.2192599   8.0622094 -18.1460720  34.5742599
   7.7432094 -19.0230720  34.3632599   8.8252094 -18.0250720  34.0082599
  21.0802094  -1.8440720  27.8642599  21.0072094  -1.0390720  27.3512599
  21.8922094  -2.2500720  27.5592599  17.7062094 -14.3860720  26.5412599
  17.7312094 -15.2400720  26.9732599  17.3282094 -14.5640720  25.6802599
  22.7452094 -17.3750720  36.7292599  22.0502094 -16.7170720  36.7402599
  22.9782094 -17.4630720  35.8052599  16.5652094 -13.4800720  38.8712599
  15.9892094 -13.3870720  38.1122599  17.3742094 -13.0380720  38.6142599
  15.1342094 -14.4670720  30.3502599  15.1112094 -15.4230720  30.3232599
  15.9742094 -14.2580720  30.7602599  25.6162094   7.8319280  38.9432599
  25.1302094   7.0139280  38.8402599  25.9172094   7.8199280  39.8522599
   8.3092094 -15.5100720  20.2552599   7.8362094 -15.2430720  19.4672599
   9.1082094 -14.9830720  20.2462599   9.3552094 -16.8870720  22.7042599
   8.8792094 -16.5460720  21.9472599   9.0312094 -16.3730720  23.4432599
  35.2402094   4.3259280  22.8192599  35.4362094   5.1669280  23.2322599
  34.2862094   4.3139280  22.7392599  21.0472094 -14.8250720  13.0842599
  20.2552094 -14.3620720  12.8082599  20.7382094 -15.4700720  13.7202599
  20.2782094 -16.4380720  15.2782599  20.8702094 -16.4470720  16.0302599
  19.5852094 -17.0560720  15.5112599  37.1962094   0.3779280  40.4702599
  36.5012094   0.4559280  41.1242599  37.1312094  -0.5230720  40.1562599
  31.5062094   3.1519280  24.7202599  32.0842094   2.4189280  24.5122599
  31.7362094   3.8279280  24.0822599  13.0392094   5.8239280  40.5532599
  12.4432094   5.9869280  39.8212599  12.5492094   5.2449280  41.1372599
  23.6242094  -2.4970720  31.8572599  23.6912094  -3.2080720  31.2202599
  22.8812094  -1.9740720  31.5562599  16.3542094 -16.1260720  16.3622599
  16.0382094 -15.8930720  15.4892599  16.6062094 -17.0460720  16.2892599
  17.3512094  -7.2280720  28.5472599  16.8932094  -8.0650720  28.4672599
  18.1242094  -7.3230720  27.9912599  20.0432094 -19.5120720  20.2222599
  20.8212094 -20.0080720  20.4782599  19.8262094 -18.9900720  20.9942599
  14.8652094  -5.9270720  28.8412599  14.5682094  -5.9580720  29.7502599
  15.6422094  -6.4860720  28.8222599  27.2732094 -18.5320720  12.0322599
  27.6202094 -19.2160720  11.4592599  26.4122094 -18.8560720  12.2972599
  35.3642094 -19.1420720  30.7652599  34.5622094 -19.3550720  31.2432599
  35.6162094 -18.2780720  31.0902599   8.1792094 -21.5690720  36.3512599
   8.9642094 -21.4980720  35.8082599   8.4292094 -21.1750720  37.1872599
  17.6202094 -20.1200720  26.3362599  17.7862094 -20.0920720  27.2792599
  17.8952094 -19.2600720  26.0192599  18.4962094  -2.3440720  35.9542599
  19.2272094  -2.2330720  35.3462599  18.6672094  -1.7120720  36.6522599
  33.5252094 -13.0430720  25.3212599  33.1192094 -12.1760720  25.3412599
  32.7872094 -13.6530720  25.3142599  19.6712094   4.4559280  39.8482599
  19.3462094   4.4119280  40.7472599  18.8882094   4.5979280  39.3162599
  20.8312094 -21.1210720  12.4612599  20.0502094 -21.3440720  11.9552599
  20.8362094 -20.1640720  12.4872599  10.3612094 -20.9810720  15.1882599
  11.3162094 -20.9140720  15.1822599  10.0652094 -20.1560720  15.5722599
  36.0422094   2.3489280  21.0762599  35.3202094   1.7259280  20.9862599
  35.7332094   2.9829280  21.7232599  16.9932094  -5.6880720  32.4082599
  16.0832094  -5.4130720  32.5162599  16.9362094  -6.5970720  32.1142599
  32.6512094   3.6069280  19.1972599  31.7642094   3.8549280  18.9382599
  33.0882094   3.3859280  18.3742599  31.6632094  -0.7360720  29.6382599
  32.5072094  -0.4720720  29.2712599  31.8892094  -1.3280720  30.3562599
  15.4282094  -1.8390720  35.8772599  15.2352094  -2.3790720  36.6442599
  16.3832094  -1.8400720  35.8172599  20.1382094 -20.2590720  23.1492599
  20.7612094 -20.9590720  23.3462599  19.2942094 -20.6000720  23.4442599
  37.0302094   5.3319280  19.5632599  36.4242094   4.6339280  19.3102599
  37.6192094   4.9199280  20.1952599  36.0062094   7.3989280  30.1622599
  36.5372094   7.2339280  30.9412599  35.1042094   7.2749280  30.4562599
  14.3872094 -19.3790720  30.4112599  14.9392094 -20.1450720  30.2542599
  13.6362094 -19.7200720  30.8982599  18.6312094  -5.7000720  34.5582599
  19.2752094  -5.1750720  34.0822599  17.9732094  -5.9260720  33.9012599
  21.6882094  -8.7120720  16.4862599  21.5602094  -8.8900720  17.4182599
  20.8052094  -8.7230720  16.1162599  26.2132094  -6.8660720  16.2202599
  26.3662094  -6.0230720  16.6462599  26.0092094  -7.4640720  16.9392599
  16.9572094   1.0369280  37.2942599  16.4702094   1.0749280  36.4702599
  16.9202094   1.9299280  37.6362599  34.5402094 -21.2540720  23.4472599
  34.6972094 -21.8910720  24.1442599  35.1242094 -20.5240720  23.6532599
  31.8502094  -1.9890720  23.0992599  32.0922094  -2.6980720  23.6942599
  31.3782094  -2.4230720  22.3882599  32.4072094  -6.6980720  11.9672599
  32.5052094  -7.4780720  11.4202599  31.6242094  -6.2630720  11.6262599
  15.5452094 -17.3860720  12.4742599  15.6362094 -16.7430720  13.1772599
  14.7242094 -17.8400720  12.6682599  24.5752094   0.7999280  38.0402599
  24.8262094   1.3089280  38.8112599  25.3082094   0.9069280  37.4332599
  33.1112094   1.1969280  23.8182599  32.9152094   1.1799280  22.8812599
  33.2692094   0.2819280  24.0482599  36.7962094   6.3039280  25.9372599
  37.2922094   5.5699280  25.5732599  37.4522094   6.9829280  26.0952599
  29.5532094  -6.9340720  19.3022599  28.9272094  -6.8980720  20.0252599
  30.3252094  -6.4720720  19.6302599  10.6282094 -15.3830720  12.5192599
  11.1902094 -14.7160720  12.1242599  11.1632094 -15.7650720  13.2152599
  24.1992094   2.0339280  10.7132599  24.6542094   2.8039280  11.0542599
  23.3282094   2.3539280  10.4772599  14.3822094   0.9109280  38.7272599
  13.7952094   0.8009280  37.9792599  15.2612094   0.8359280  38.3542599
  25.4462094  -8.9660720  18.0502599  24.8942094  -9.5940720  17.5842599
  24.8462094  -8.5140720  18.6432599   7.3242094 -18.0050720  16.4512599
   7.1792094 -18.9190720  16.2092599   7.2602094 -17.9970720  17.4062599
  22.5272094  -0.7110720  38.7482599  21.8952094  -0.0350720  38.5062599
  23.3672094  -0.3800720  38.4282599  27.0912094 -21.2730720  36.9292599
  26.4942094 -21.5110720  37.6382599  27.4832094 -20.4470720  37.2122599
  33.5632094   1.5839280  32.7612599  33.0942094   2.2769280  32.2972599
  34.4292094   1.5659280  32.3542599  15.8832094 -16.6280720  36.8332599
  15.7532094 -16.7290720  37.7762599  15.1542094 -16.0770720  36.5472599
  12.2422094 -20.5640720  38.2312599  12.4242094 -19.7550720  37.7542599
  12.1112094 -21.2210720  37.5472599  19.8032094   0.4849280  35.1412599
  19.9002094   0.2059280  36.0522599  20.3272094  -0.1410720  34.6412599
  14.1822094  -5.5690720  31.3482599  13.6082094  -5.8270720  32.0702599
  14.1812094  -4.6120720  31.3722599  20.7252094  -4.5670720  32.9602599
  21.2882094  -5.1770720  33.4372599  20.6162094  -4.9660720  32.0972599
  20.6702094  -2.0840720  34.1382599  20.7892094  -2.8930720  33.6402599
  21.3832094  -2.0870720  34.7762599  28.2872094   5.6329280  36.8922599
  27.9392094   5.7749280  36.0122599  28.5372094   6.5059280  37.1952599
  15.6472094 -19.0100720  35.5432599  15.2792094 -19.7520720  36.0222599
  15.6562094 -18.2950720  36.1792599  31.7082094  -4.5630720  33.0032599
  32.3082094  -5.2570720  33.2762599  30.8802094  -4.7770720  33.4322599
  18.8852094  -1.4850720  40.3872599  17.9972094  -1.6650720  40.0782599
  19.1962094  -2.3230720  40.7272599  14.9882094  -3.9570720  37.5802599
  15.1382094  -3.4710720  38.3912599  15.8582094  -4.2510720  37.3112599
  21.8812094   6.0369280  40.0682599  20.9832094   5.7969280  40.2952599
  21.7902094   6.6289280  39.3212599  15.1992094   4.0489280  39.7232599
  14.5342094   4.4339280  40.2942599  14.7562094   3.9319280  38.8832599
  33.9582094 -17.8990720  33.3412599  33.9602094 -18.7270720  33.8212599
  34.5422094 -17.3300720  33.8412599  12.6732094  -4.5360720  36.0732599
  12.5642094  -5.4430720  36.3612599  13.5312094  -4.2790720  36.4112599
  17.1062094 -18.0100720  32.4382599  16.3022094 -18.1030720  32.9492599
  17.6962094 -18.6740720  32.7942599  18.5252094   7.3879280  38.5122599
  17.5752094   7.3819280  38.3942599  18.8782094   7.2329280  37.6362599
  15.6712094  -8.9070720  23.3892599  15.9452094  -8.3530720  22.6592599
  16.4362094  -9.4510720  23.5782599  18.0322094 -19.3730720  38.7432599
  17.1522094 -19.5720720  38.4232599  17.9082094 -19.1540720  39.6662599
  19.3482094  -0.4700720  37.7862599  18.5412094   0.0249280  37.6422599
  19.6262094  -0.2240720  38.6682599  33.6882094   1.8459280  14.5042599
  34.4552094   1.7319280  13.9432599  33.3402094   2.7039280  14.2632599
  23.0662094 -19.4600720  32.3132599  22.7022094 -19.6080720  33.1862599
  23.9702094 -19.7680720  32.3752599  26.5282094  -2.1650720  30.9512599
  26.2162094  -2.4520720  30.0932599  25.7312094  -1.9760720  31.4462599
  21.7222094 -18.2070720  39.3512599  21.3592094 -19.0760720  39.1752599
  22.2412094 -18.0030720  38.5732599  24.2892094  -5.8390720  36.5212599
  24.9622094  -5.1590720  36.4792599  23.4812094  -5.3650720  36.7162599
  20.2522094 -20.0100720  30.6142599  21.1522094 -19.9600720  30.9372599
  20.1272094 -20.9330720  30.3942599  15.4402094 -20.2970720  38.7572599
  14.7832094 -20.1560720  39.4392599  15.3762094 -21.2310720  38.5532599
  25.6742094 -13.5360720  12.2212599  26.3872094 -13.1820720  12.7522599
  25.2382094 -12.7640720  11.8592599  22.3192094  -4.3030720  37.0102599
  22.4282094  -3.8720720  37.8582599  21.7322094  -5.0370720  37.1882599
  32.2812094 -18.5510720  36.0182599  31.9472094 -18.8700720  35.1802599
  32.8242094 -19.2670720  36.3482599  16.2732094 -20.3880720  11.7892599
  15.5892094 -21.0580720  11.7652599  15.8602094 -19.6100720  11.4162599
  20.0202094  -4.7030720  24.4792599  19.6522094  -5.5830720  24.5512599
  19.3812094  -4.2180720  23.9562599  15.6102094   7.0229280  38.4112599
  15.2842094   6.4389280  37.7262599  15.2082094   6.6959280  39.2162599
  20.3092094  -6.3290720  36.9732599  20.1872094  -7.2780720  36.9502599
  20.3902094  -6.0760720  36.0532599  12.6892094 -21.3880720  31.5112599
  12.3392094 -20.7610720  32.1442599  12.5512094 -22.2430720  31.9202599
  21.8582094 -13.7680720  15.9692599  22.5502094 -13.8890720  15.3192599
  21.5872094 -14.6570720  16.1982599  19.4302094 -15.2180720  18.4912599
  20.2512094 -15.6450720  18.2482599  18.7642094 -15.6620720  17.9662599
  17.9612094 -15.3530720  40.5802599  18.3082094 -14.6750720  41.1592599
  17.3412094 -14.8920720  40.0142599  32.1482094  -6.4470720  17.0292599
  31.2592094  -6.2200720  16.7552599  32.6792094  -5.6940720  16.7712599
  26.5642094 -14.0180720  23.4062599  26.7512094 -13.5850720  22.5732599
  26.1672094 -13.3360720  23.9482599  37.1262094  -8.6310720  30.7712599
  36.4282094  -8.0150720  30.5472599  36.7362094  -9.4940720  30.6322599
  30.6242094 -13.4640720  25.2142599  30.2502094 -13.0960720  24.4132599
  30.2582094 -14.3470720  25.2662599  34.6662094 -17.5700720  21.2672599
  34.5242094 -17.2700720  20.3702599  34.9012094 -18.4940720  21.1782599
  31.0292094 -13.6530720  21.7472599  30.4522094 -13.0790720  21.2442599
  31.6902094 -13.9400720  21.1172599  31.3272094 -20.2140720  21.5562599
  30.4112094 -20.0950720  21.8062599  31.2972094 -20.8220720  20.8182599
  30.0122094   0.2819280  40.5162599  30.2972094  -0.4030720  41.1222599
  30.5852094   0.1819280  39.7562599   7.2482094 -14.8360720  28.1972599
   7.9662094 -14.2320720  28.3862599   6.9052094 -14.5430720  27.3532599
  26.5752094  -9.5400720  12.3222599  25.6322094  -9.4450720  12.1872599
  26.7482094 -10.4670720  12.1552599  25.8102094 -16.6740720  23.1222599
  26.3802094 -17.0810720  22.4692599  26.1842094 -15.8030720  23.2582599
  35.4082094   1.7589280  25.4822599  34.7512094   1.8889280  24.7992599
  36.2232094   1.6009280  25.0042599  34.9482094 -18.7790720  14.5632599
  35.4032094 -19.5460720  14.2152599  34.2282094 -18.6290720  13.9512599
  23.0572094 -14.5470720  11.2742599  22.3902094 -14.7120720  11.9412599
  23.6442094 -13.9070720  11.6752599  26.7212094  -4.3240720  37.2602599
  27.4792094  -4.6910720  36.8052599  26.7252094  -4.7520720  38.1162599
  33.1272094 -16.1280720  25.3822599  33.3462094 -15.7250720  24.5422599
  32.9502094 -17.0440720  25.1702599  32.6382094 -14.5940720  16.1132599
  32.0732094 -15.3570720  15.9922599  32.9512094 -14.3850720  15.2322599
  21.9852094 -10.3050720  31.1092599  21.3082094  -9.8320720  30.6252599
  22.5652094  -9.6190720  31.4422599  23.8952094 -14.5580720  14.5002599
  24.3842094 -14.0490720  13.8532599  23.9722094 -15.4640720  14.2002599
  12.8032094 -17.6480720  28.5762599  13.3172094 -18.1490720  29.2082599
  12.2972094 -18.3080720  28.1012599  32.4842094 -15.9470720  30.3532599
  33.3592094 -16.2820720  30.1572599  32.1092094 -15.7400720  29.4972599
  17.6952094 -14.4290720  31.5282599  18.5352094 -14.7710720  31.2202599
  17.8162094 -14.3090720  32.4702599  12.6182094 -12.6390720  23.9602599
  11.7322094 -12.7200720  24.3122599  12.5942094 -11.8410720  23.4312599
  36.7202094 -20.8640720  13.9902599  37.3832094 -20.8010720  13.3032599
  36.3302094 -21.7300720  13.8682599  26.3082094 -10.2430720  24.4502599
  25.9182094 -10.1650720  23.5792599  25.9502094  -9.5040720  24.9412599
  30.6382094  -4.9500720  28.5342599  30.1972094  -4.3180720  27.9662599
  30.0302094  -5.0840720  29.2612599   7.7462094 -18.1270720  12.7202599
   8.0912094 -17.6220720  11.9842599   6.8072094 -18.1940720  12.5462599
  32.6402094   1.4369280  16.9612599  33.3512094   1.0279280  17.4552599
  33.0132094   1.6009280  16.0952599  27.0162094  -9.4020720  15.4542599
  27.4752094  -9.2420720  16.2782599  26.7422094  -8.5340720  15.1592599
  25.2042094 -14.5570720  37.8332599  24.5132094 -15.0030720  38.3222599
  25.2872094 -15.0590720  37.0222599  32.7482094 -10.4320720  26.0892599
  32.3062094 -10.9670720  26.7482599  32.0462094  -9.9220720  25.6842599
  33.9302094 -17.9500720  28.4762599  33.6532094 -17.4810720  27.6892599
  33.2342094 -18.5870720  28.6342599  27.0832094 -13.7810720  39.8482599
  26.6432094 -14.0460720  39.0402599  26.4612094 -13.9950720  40.5422599
  36.4052094   2.2019280  16.4522599  36.5532094   2.7549280  15.6852599
  36.6182094   1.3169280  16.1552599  28.4542094 -20.8080720  19.1972599
  28.5872094 -20.4640720  20.0802599  27.7792094 -21.4790720  19.3012599
  31.3712094 -17.1340720  39.8892599  31.1072094 -16.5420720  39.1852599
  30.6222094 -17.1460720  40.4862599  34.2082094 -20.9490720  33.9702599
  33.2992094 -21.1910720  33.7912599  34.6462094 -21.7800720  34.1542599
  34.2422094  -1.2130720  24.1472599  33.3932094  -1.4980720  23.8102599
  34.6202094  -1.9990720  24.5412599  30.5502094 -16.5190720  22.4292599
  30.9522094 -15.6830720  22.1912599  31.2912094 -17.0990720  22.6072599
  32.1632094 -20.5350720  30.7272599  31.8602094 -20.1670720  29.8972599
  31.6632094 -20.0660720  31.3952599  29.7192094   2.3489280  26.8832599
  30.5072094   2.2619280  27.4192599  30.0462094   2.5029280  25.9972599
  33.5092094 -14.0710720  34.5562599  33.4892094 -14.8110720  35.1622599
  34.2922094 -13.5790720  34.8042599  32.9242094  -2.4180720  18.7942599
  32.0372094  -2.4360720  19.1532599  33.3742094  -3.1400720  19.2312599
  23.8412094 -11.9950720  17.7142599  23.4732094 -12.4620720  16.9632599
  24.7452094 -12.3030720  17.7692599  30.4292094   1.6019280  21.1062599
  30.1582094   2.1609280  20.3772599  29.7382094   0.9429280  21.1712599
   7.2182094 -15.2290720  17.9032599   6.6402094 -15.6700720  17.2792599
   7.8962094 -14.8270720  17.3592599  12.5982094 -19.9250720  24.7152599
  13.5402094 -20.0180720  24.5682599  12.3072094 -19.3190720  24.0342599
  28.1662094 -10.2130720  38.7182599  28.6722094 -10.8250720  39.2522599
  28.6592094 -10.1440720  37.9002599  19.2282094 -17.7750720  10.9232599
  18.6362094 -17.0520720  10.7162599  19.9032094 -17.7340720  10.2452599
  31.6472094 -19.4770720  28.1802599  31.8852094 -19.3800720  27.2582599
  31.1072094 -20.2670720  28.2072599  15.7372094 -17.1650720  30.0422599
  16.3442094 -17.4680720  30.7182599  15.0022094 -17.7770720  30.0892599
  34.8612094 -14.3340720  39.1072599  35.3802094 -13.5600720  38.8872599
  34.7012094 -14.7640720  38.2672599  28.4212094 -19.8340720  21.6642599
  28.2442094 -19.8160720  22.6042599  28.2852094 -18.9310720  21.3772599
  29.3042094 -15.3400720  27.0752599  28.7632094 -14.7460720  27.5952599
  28.8682094 -15.3800720  26.2242599  24.2332094 -11.7870720  40.7092599
  24.1202094 -10.8500720  40.8642599  24.5472094 -11.8450720  39.8062599
  35.1822094 -20.0200720  19.9102599  34.8562094 -20.7900720  20.3752599
  34.7732094 -20.0700720  19.0462599  28.7592094  -5.4760720  30.0752599
  28.4462094  -5.0090720  30.8492599  29.2152094  -6.2420720  30.4242599
  31.7762094  -8.7600720  28.6732599  32.5182094  -9.2720720  28.3502599
  32.1762094  -8.0450720  29.1692599   9.8832094 -17.4740720  32.4852599
   9.4932094 -17.9770720  31.7702599  10.1872094 -16.6660720  32.0702599
  37.0542094   0.9209280  34.3332599  37.7072094   0.4469280  33.8192599
  36.3102094   1.0249280  33.7392599  37.2192094 -12.2080720  17.9612599
  36.2832094 -12.3100720  18.1332599  37.3592094 -12.6530720  17.1262599
  19.3272094 -14.1080720  22.8362599  20.2672094 -14.1330720  22.6572599
  19.1542094 -14.9140720  23.3222599  29.4442094  -9.2020720  22.0972599
  28.9392094  -8.4100720  21.9132599  29.3952094  -9.7110720  21.2882599
  35.1812094 -12.6290720  29.3272599  36.0722094 -12.7770720  29.6462599
  34.6292094 -13.1560720  29.9052599  33.1222094  -0.4650720  39.5502599
  32.6172094  -0.5460720  38.7422599  33.6242094   0.3429280  39.4402599
   9.8242094 -12.6370720  19.2482599  10.2472094 -12.4350720  20.0832599
   8.9582094 -12.2360720  19.3152599   9.1542094 -13.3120720  29.0412599
  10.0052094 -12.9080720  29.2092599   8.5962094 -13.0020720  29.7542599
  34.6912094 -15.6060720  23.2902599  34.8222094 -16.4310720  22.8222599
  34.6202094 -14.9470720  22.5992599  13.2532094 -18.0590720  13.9492599
  12.9002094 -17.1950720  14.1632599  12.5632094 -18.4780720  13.4342599
  27.3502094 -18.3150720  17.7882599  27.9762094 -18.8810720  18.2412599
  26.6162094 -18.2340720  18.3962599  13.0742094 -11.2830720  15.9782599
  12.8232094 -10.7270720  16.7162599  13.0602094 -10.6980720  15.2212599
  33.1922094   6.8869280  31.1912599  32.5752094   6.3049280  30.7462599
  32.8662094   7.7679280  31.0062599  29.3522094 -13.7960720  19.2492599
  30.2662094 -14.0800720  19.2172599  29.3152094 -13.0400720  18.6632599
  31.5742094 -10.6660720  17.8522599  31.8822094 -10.2190720  18.6402599
  32.2862094 -10.5580720  17.2212599  34.2982094 -13.6410720  21.3732599
  33.8572094 -12.9040720  21.7962599  34.4732094 -13.3360720  20.4822599
  31.6182094 -13.3310720  10.7802599  32.1872094 -12.7310720  10.2982599
  32.1372094 -13.5950720  11.5402599  34.8522094  -3.7300720  31.0482599
  34.1972094  -3.6430720  31.7412599  34.9802094  -2.8380720  30.7252599
  27.6332094 -15.8390720  16.5652599  27.8772094 -16.6250720  17.0532599
  28.4682094 -15.4640720  16.2822599  11.2862094  -4.3300720  31.5182599
  10.7452094  -3.9340720  30.8352599  11.9722094  -3.6830720  31.6862599
  22.2582094 -18.4540720  22.5872599  23.1182094 -18.8620720  22.4842599
  21.7642094 -19.0680720  23.1312599   8.4422094 -14.7530720  24.7772599
   7.5542094 -14.8260720  25.1242599   8.7352094 -13.8830720  25.0472599
  18.0382094  -3.5210720  31.1782599  18.7042094  -3.6870720  30.5112599
  17.8802094  -4.3760720  31.5782599  32.5162094  -8.0610720  22.1952599
  32.2202094  -7.3330720  22.7412599  33.3062094  -8.3810720  22.6312599
  31.9752094 -19.4490720  16.5132599  31.3712094 -20.1920720  16.5262599
  32.8452094 -19.8480720  16.5182599  26.6052094  -6.3960720  26.7072599
  27.4202094  -6.8910720  26.6202599  26.8872094  -5.5100720  26.9352599
  34.9532094  -7.9650720  14.4612599  34.9262094  -7.7220720  15.3862599
  35.0882094  -7.1370720  13.9992599  30.0342094  -7.1800720  39.9002599
  30.2602094  -6.2700720  40.0952599  29.5272094  -7.1320720  39.0902599
  31.6922094 -17.7780720  18.9512599  31.8532094 -18.4380720  18.2772599
  32.5562094 -17.6010720  19.3252599  35.0792094  -5.6040720  12.4282599
  34.2502094  -6.0690720  12.3092599  35.4572094  -5.5600720  11.5502599
  28.6082094 -15.6050720  24.3402599  27.9322094 -15.1100720  23.8772599
  29.2262094 -15.8640720  23.6562599  25.1362094  -4.3890720  21.9102599
  25.0932094  -5.3250720  21.7132599  26.0052094  -4.2660720  22.2942599
  32.6682094  -9.6000720  20.0202599  32.3072094  -9.0520720  20.7172599
  33.4672094  -9.9700720  20.3952599  34.4252094 -16.5940720  18.6752599
  34.5782094 -15.6730720  18.8882599  34.7482094 -16.6890720  17.7792599
  31.3262094 -12.5930720  34.9902599  30.6502094 -13.1340720  34.5832599
  32.1082094 -13.1450720  34.9902599  30.0362094  -7.9920720  30.5742599
  30.7482094  -8.2930720  30.0092599  29.2942094  -8.5510720  30.3432599
  30.4462094 -21.0950720  24.8392599  30.8912094 -21.8020720  24.3722599
  31.1362094 -20.4590720  25.0262599  23.4492094 -15.9010720  22.4192599
  24.3432094 -16.2110720  22.5592599  22.9142094 -16.6940720  22.4402599
  32.4482094 -19.0420720  25.7642599  33.3472094 -19.3660720  25.8282599
  32.3002094 -18.9290720  24.8252599  33.2242094 -11.7940720  23.0352599
  33.5402094 -12.4620720  23.6442599  32.2872094 -11.7260720  23.2192599
  30.2082094 -13.1300720  14.1192599  30.4022094 -12.1940720  14.0642599
  30.6252094 -13.4140720  14.9332599  25.5842094 -19.7970720  15.1212599
  25.3592094 -20.5320720  15.6912599  26.5402094 -19.7570720  15.1482599
  35.1762094 -12.3510720  36.0332599  35.7672094 -12.3000720  36.7842599
  34.6632094 -11.5440720  36.0762599  36.5952094  -1.0990720  23.0972599
  35.7032094  -1.0910720  23.4442599  36.4832094  -1.1130720  22.1472599
  27.0972094 -13.1970720  20.6802599  27.0972094 -12.3130720  20.3132599
  27.8012094 -13.6490720  20.2172599  29.8792094 -10.1940720  36.7662599
  29.9512094 -11.0080720  36.2672599  30.7712094 -10.0160720  37.0652599
  29.5302094  -3.7410720  24.3422599  29.6662094  -3.0070720  24.9402599
  28.6832094  -3.5640720  23.9322599  25.7412094  -2.6380720  35.2962599
  25.9812094  -3.2640720  35.9802599  26.5402094  -2.1360720  35.1392599
  25.7322094 -15.3290720  19.5602599  25.8742094 -15.2590720  18.6162599
  26.0462094 -14.4970720  19.9132599  24.7702094 -19.4470720  22.3132599
  24.7232094 -19.6390720  23.2502599  24.6292094 -20.2920720  21.8882599
  30.2752094 -15.5190720  12.9002599  30.3052094 -14.6010720  13.1692599
  29.7642094 -15.5160720  12.0912599  26.6172094   7.4539280  11.4832599
  27.5742094   7.4459280  11.4772599  26.3772094   6.9339280  12.2502599
  30.2802094 -16.9830720  37.2312599  30.9802094 -17.4110720  36.7392599
  29.6432094 -16.7230720  36.5662599  36.5902094  -0.2610720  27.4172599
  36.3062094   0.5509280  26.9972599  37.4792094  -0.0760720  27.7192599
  37.1872094 -18.2520720  19.3492599  36.4752094 -18.8770720  19.4862599
  36.8112094 -17.4040720  19.5832599  15.1102094 -20.6350720  17.6752599
  15.5732094 -20.1600720  18.3652599  14.7992094 -19.9520720  17.0812599
  33.2502094 -15.3620720  13.4872599  33.9632094 -15.0880720  12.9102599
  32.6632094 -15.8630720  12.9212599  32.5992094  -0.7490720  12.1462599
  32.6872094  -0.5640720  11.2112599  33.4112094  -1.1990720  12.3792599
  35.5532094 -16.0970720  29.9152599  35.9912094 -15.5710720  29.2462599
  35.2472094 -16.8740720  29.4472599  20.8932094 -20.7560720  39.4082599
  19.9962094 -20.8890720  39.7132599  21.4322094 -20.8720720  40.1912599
  28.1292094 -17.1800720  28.3692599  27.7692094 -17.6580720  27.6222599
  28.7112094 -16.5280720  27.9782599  26.7392094  -8.1090720  39.9342599
  26.8082094  -8.6310720  40.7342599  27.1262094  -8.6600720  39.2542599
  36.5922094 -11.7870720  11.8302599  36.9702094 -11.9470720  10.9662599
  36.0752094 -12.5720720  12.0152599  31.0012094  -4.7750720  40.3282599
  30.9642094  -4.1820720  41.0782599  31.8422094  -4.5850720  39.9122599
   9.7902094  -5.1790720  38.2192599   9.5562094  -5.5220720  37.3572599
  10.7222094  -5.3790720  38.3122599  28.6072094  -8.3570720  34.8682599
  28.8082094  -9.2230720  35.2242599  28.4662094  -8.5080720  33.9342599
  31.5712094  -5.1130720  37.1342599  31.6862094  -4.2270720  36.7922599
  31.2252094  -4.9860720  38.0182599  36.3632094 -11.1860720  33.0992599
  35.4712094 -10.9760720  32.8222599  36.2812094 -11.4020720  34.0282599
  34.7032094  -9.9150720  29.4412599  34.7722094 -10.8680720  29.3812599
  34.7922094  -9.7260720  30.3752599  35.3062094  -8.4880720  34.5982599
  35.9492094  -8.8880720  35.1852599  34.6402094  -8.1270720  35.1832599
   8.1632094  -7.6410720  37.4102599   8.4652094  -7.5540720  38.3142599
   8.9312094  -7.9490720  36.9292599  31.3002094 -19.8290720  38.7292599
  31.9682094 -20.1340720  38.1152599  31.5932094 -18.9550720  38.9872599
  28.9512094  -8.2030720  12.9982599  28.9612094  -7.8570720  12.1062599
  28.1432094  -8.7140720  13.0482599   7.8702094 -17.0830720  37.1942599
   8.0092094 -17.2290720  36.2592599   8.0642094 -16.1550720  37.3242599
  35.2182094   4.2059280  10.8152599  34.8392094   4.8199280  10.1852599
  35.9782094   4.6669280  11.1702599  10.1042094 -11.3080720  33.5342599
   9.5132094 -10.7400720  33.0392599  10.6872094 -10.7040720  33.9942599
  28.3812094 -16.5640720  35.0222599  27.5372094 -16.3000720  35.3872599
  28.4432094 -17.5000720  35.2122599  33.7312094 -15.9850720  36.5532599
  33.0082094 -16.5980720  36.4202599  34.5102094 -16.4700720  36.2802599
  35.9472094   6.6199280  13.6622599  36.0632094   5.7209280  13.9702599
  36.6652094   6.7579280  13.0452599   9.8362094 -14.4920720  33.9442599
  10.1032094 -13.6800720  33.5122599   9.2912094 -14.9400720  33.2962599
  29.6202094   2.9069280  11.4332599  28.8442094   2.8349280  11.9892599
  29.6932094   2.0509280  11.0112599  34.1962094 -13.8100720  31.5242599
  34.3512094 -13.9970720  32.4502599  33.3622094 -14.2390720  31.3302599
  12.3702094  -6.3190720  39.3452599  12.4372094  -6.9180720  38.6022599
  13.2782094  -6.1470720  39.5962599  34.1272094 -10.9930720  16.1622599
  34.4842094 -10.1280720  16.3602599  34.7302094 -11.3590720  15.5142599
  29.3742094 -14.2150720  33.8482599  29.8202094 -14.3340720  33.0102599
  29.1722094 -15.1040720  34.1412599  33.2702094  -6.5880720  33.5262599
  34.0172094  -6.9950720  33.0872599  33.3552094  -6.8550720  34.4412599
   8.9012094 -16.8160720  14.8412599   8.5802094 -17.2330720  14.0412599
   8.2732094 -17.0750720  15.5152599  31.4432094   1.9789280  28.9822599
  31.4632094   1.1929280  29.5292599  32.3362094   2.0599280  28.6462599
  34.5962094   6.4799280  38.9722599  34.0532094   7.0109280  39.5562599
  35.2562094   7.0889280  38.6402599  31.3632094  -3.0550720  12.3802599
  31.7212094  -2.1900720  12.1792599  32.0152094  -3.4570720  12.9552599
  32.4322094  -6.4280720  29.8532599  31.8682094  -6.2240720  30.6002599
  32.2152094  -5.7630720  29.2002599  35.0762094 -18.6250720  11.4032599
  34.3262094 -19.1980720  11.5642599  34.7582094 -17.7480720  11.6142599
  24.7762094 -15.6190720  32.4792599  25.1142094 -16.5130720  32.5292599
  25.4272094 -15.1440720  31.9622599  25.8202094 -17.7710720  38.3132599
  26.6332094 -18.2690720  38.2282599  25.7732094 -17.5440720  39.2422599
  36.4052094  -9.8540720  36.8952599  36.5732094 -10.4100720  37.6562599
  36.7632094  -9.0000720  37.1382599  27.2552094 -14.9620720  31.2912599
  27.5982094 -15.8240720  31.0562599  28.0342094 -14.4270720  31.4432599
  36.6012094 -18.3980720  26.6862599  36.4242094 -19.1790720  27.2112599
  36.0942094 -17.7050720  27.1102599  33.3292094  -9.1660720  38.2412599
  32.6202094  -9.3310720  38.8622599  34.0902094  -8.9760720  38.7892599
  25.0672094 -13.9390720  34.7362599  24.9452094 -14.8880720  34.7062599
  24.2032094 -13.5930720  34.9622599  28.7512094  -5.8810720  36.0342599
  29.4292094  -6.0610720  36.6852599  28.5742094  -6.7310720  35.6302599
  37.0372094 -18.9700720  39.3222599  36.4992094 -18.6400720  40.0412599
  36.9072094 -18.3380720  38.6152599  31.1882094 -16.8570720  15.6852599
  31.0722094 -17.0410720  14.7532599  31.4352094 -17.6990720  16.0672599
  35.8852094 -16.5830720  34.5872599  36.4162094 -15.8990720  34.9962599
  36.4582094 -17.3490720  34.5622599   9.7042094 -17.7730720  39.6082599
   9.5272094 -16.8340720  39.6512599   9.1922094 -18.0810720  38.8602599
  17.0772094  -9.7580720  27.7932599  17.3882094 -10.3400720  28.4862599
  17.3102094 -10.2080720  26.9802599   9.4412094  -5.6020720  35.3262599
   8.6802094  -6.0950720  35.0212599  10.1942094  -6.1120720  35.0272599
  27.3232094  -5.3440720  39.5922599  27.1092094  -6.2590720  39.4132599
  27.7642094  -5.3620720  40.4422599  27.1902094 -12.3600720  34.0232599
  27.9882094 -12.8880720  34.0702599  26.4912094 -12.9590720  34.2872599
  30.7932094  -8.8430720  24.8072599  30.4942094  -8.9360720  23.9032599
  31.0532094  -7.9250720  24.8812599  29.1142094  -3.1050720  38.0382599
  28.8732094  -2.3460720  38.5692599  28.3932094  -3.7230720  38.1602599
  27.8472094  -0.9100720  39.1672599  27.9942094  -0.6310720  40.0702599
  27.7522094  -0.0940720  38.6752599  30.2842094 -14.4700720  31.3462599
  30.7592094 -13.7740720  30.8922599  30.7702094 -15.2680720  31.1362599
   7.3082094 -14.3900720  35.6502599   8.1882094 -14.2560720  35.2962599
   6.8652094 -13.5520720  35.5152599  28.4702094 -17.3510720  20.8512599
  29.3582094 -17.1330720  21.1342599  28.1442094 -16.5470720  20.4452599
  12.4652094 -10.0080720  18.1622599  12.0322094 -10.6410720  18.7362599
  12.7622094  -9.3150720  18.7512599  13.2392094 -15.5250720  23.6042599
  13.9492094 -15.6380720  22.9722599  13.1672094 -14.5780720  23.7182599
  33.0652094  -7.3450720  35.9962599  33.1072094  -7.9670720  36.7232599
  32.5412094  -6.6190720  36.3332599  34.1562094   4.5589280  32.7892599
  35.0782094   4.6499280  33.0332599  33.9932094   5.2879280  32.1912599
   7.6962094 -11.7980720  24.5122599   7.0142094 -11.7830720  25.1842599
   7.4122094 -12.4750720  23.8972599  29.1942094  -7.6170720  26.7322599
  29.8352094  -8.1850720  26.3042599  29.6772094  -7.2130720  27.4532599
  28.5382094   2.0199280  37.7692599  29.2392094   2.5739280  37.4252599
  28.0072094   2.6089280  38.3042599  31.3012094 -17.8480720  31.7372599
  31.7752094 -17.0880720  31.3982599  31.7292094 -18.0450720  32.5702599
   7.0612094 -12.3360720  38.0642599   7.6272094 -12.0670720  37.3402599
   7.6402094 -12.8150720  38.6572599  20.9292094 -15.1110720  26.2532599
  21.4322094 -14.7160720  25.5412599  20.6152094 -14.3660720  26.7662599
  35.3752094  -9.0470720  39.9632599  36.2252094  -8.6080720  39.9592599
  35.3922094  -9.5960720  40.7472599  11.1012094  -7.2480720  30.7102599
  10.5112094  -6.5180720  30.8952599  11.0572094  -7.3570720  29.7602599
  26.5402094 -12.4690720  30.5792599  26.1572094 -11.6660720  30.9322599
  26.2992094 -13.1480720  31.2102599  24.4032094 -19.3220720  24.8772599
  24.6442094 -19.8800720  25.6172599  24.1832094 -18.4790720  25.2742599
  12.6482094  -7.2470720  36.7512599  12.0382094  -7.8820720  36.3742599
  13.4552094  -7.7420720  36.8882599  13.3632094 -17.9180720  34.4752599
  14.2192094 -18.1300720  34.8482599  12.8142094 -17.7190720  35.2332599
   7.8382094  -7.4400720  34.1392599   6.8992094  -7.6160720  34.1952599
   8.1682094  -8.0930720  33.5222599   9.2412094  -9.0590720  32.2862599
   9.9652094  -8.5150720  31.9772599   8.5062094  -8.8250720  31.7202599
  34.6612094 -13.2680720  17.9912599  34.2662094 -12.5080720  17.5632599
  34.6402094 -13.9550720  17.3252599  11.8262094 -13.3580720  10.9752599
  11.7372094 -12.4220720  11.1542599  12.7672094 -13.5240720  11.0302599
  10.7662094 -16.2700720  25.3372599  11.4742094 -15.8170720  24.8782599
  10.0342094 -15.6530720  25.3182599  21.5552094 -12.9690720  31.1052599
  21.6142094 -12.0170720  31.1822599  21.5852094 -13.1360720  30.1632599
  26.8272094  -4.5010720  32.2802599  27.4622094  -4.3060720  32.9692599
  26.5942094  -3.6460720  31.9182599  34.3222094  -9.1820720  32.0462599
  33.5412094  -9.6690720  32.3092599  34.8922094  -9.2080720  32.8142599
   8.8972094 -17.0050720  27.9762599   8.4552094 -17.4510720  27.2532599
   8.2682094 -16.3470720  28.2722599  10.9732094 -18.4250720  16.1552599
  11.9272094 -18.3480720  16.1882599  10.6902094 -17.6800720  15.6252599
  29.4972094 -11.2080720  32.3782599  28.9082094 -10.4580720  32.2882599
  28.9502094 -11.8980720  32.7552599  35.8002094  -1.0110720  30.9952599
  36.3902094  -0.7010720  31.6812599  35.6942094  -0.2600720  30.4112599
  25.7032094   4.1369280  11.3312599  25.8002094   5.0389280  11.6372599
  26.3842094   4.0359280  10.6652599  31.5072094  -6.2460720  24.0472599
  30.9252094  -5.5170720  23.8342599  32.0692094  -5.9080720  24.7452599
  26.7412094 -21.5050720  27.8512599  27.0392094 -21.2150720  26.9892599
  25.8672094 -21.1270720  27.9432599  31.7652094   4.6199280  30.3822599
  32.4992094   4.1699280  29.9632599  30.9892094   4.2789280  29.9362599
  26.9652094   2.4339280  24.1742599  27.4652094   2.5769280  23.3702599
  27.5672094   1.9629280  24.7502599  23.4242094 -18.9710720  17.6502599
  23.6852094 -19.8470720  17.3672599  24.2442094 -18.5440720  17.8962599
  25.0422094 -17.9150720  19.4372599  25.2092094 -16.9850720  19.5932599
  24.8822094 -18.2800720  20.3072599  28.8862094 -21.5520720  30.0202599
  29.4982094 -21.7660720  29.3152599  28.1432094 -21.1430720  29.5762599
  34.3362094  -0.1490720  18.7402599  34.2042094   0.4349280  19.4872599
  33.5532094  -0.6990720  18.7232599  28.3012094 -19.4530720  15.3532599
  28.2982094 -18.9040720  16.1382599  28.7482094 -18.9240720  14.6922599
  29.1952094 -11.4240720  26.8342599  29.1702094 -11.2450720  25.8932599
  30.0752094 -11.7690720  26.9892599  23.7962094  -3.4730720  23.9692599
  23.9162094  -4.0630720  23.2252599  24.6342094  -3.0200720  24.0532599
  35.0512094  -4.1320720  19.9752599  34.9342094  -4.2660720  20.9152599
  35.4952094  -3.2860720  19.9072599  32.6892094   3.7909280  39.4002599
  33.5372094   3.3519280  39.3242599  32.2312094   3.5689280  38.5892599
  33.8622094  -4.0000720  24.1732599  33.4662094  -3.7800720  25.0172599
  33.9992094  -4.9470720  24.2132599  30.2312094   0.0619280  24.1052599
  29.7562094   0.0459280  23.2742599  31.1392094  -0.1240720  23.8662599
  32.4162094 -18.3170720  23.0242599  32.0432094 -18.9240720  22.3852599
  33.2722094 -18.0850720  22.6642599  31.2992094   0.2619280  14.3492599
  31.9442094   0.8849280  14.6832599  31.6242094   0.0209280  13.4822599
  32.5102094  -5.0440720  14.3442599  32.6172094  -5.7000720  13.6552599
  31.6762094  -5.2660720  14.7592599   8.3952094   2.8149280  39.5902599
   7.9392094   2.0249280  39.8792599   9.3062094   2.5409280  39.4822599
  32.8602094  -0.6740720  33.8642599  33.1252094   0.1289280  33.4162599
  32.2152094  -1.0730720  33.2812599  35.2592094  -6.5210720  24.7392599
  35.5152094  -7.4100720  24.4952599  35.8932094  -5.9580720  24.2932599
  28.6842094  -3.8870720  19.6052599  27.8742094  -3.5990720  20.0262599
  28.3942094  -4.3940720  18.8472599  27.1282094   4.3989280  38.9942599
  26.2422094   4.7549280  38.9312599  27.5692094   4.7109280  38.2042599
  29.9552094  -2.2520720  27.9932599  29.4882094  -1.5010720  27.6252599
  30.6132094  -1.8650720  28.5712599  30.8912094  -3.8160720  21.1272599
  31.3402094  -4.6300720  20.9002599  30.1402094  -3.7840720  20.5342599
  34.6582094   4.2719280  17.1212599  34.9452094   3.3689280  17.2512599
  34.5832094   4.3659280  16.1712599  34.3412094   3.6589280  29.4752599
  34.4182094   3.0269280  28.7612599  35.1302094   4.1959280  29.4072599
  36.1852094  -6.3140720  27.9982599  35.8552094  -6.5200720  28.8722599
  35.7452094  -6.9390720  27.4222599  24.2122094   1.1459280  28.2832599
  24.0682094   0.4509280  27.6402599  23.9632094   1.9499280  27.8282599
  32.7032094 -19.4230720  12.8882599  31.8842094 -18.9300720  12.8432599
  32.4662094 -20.2450720  13.3172599  35.0252094  -5.0860720  15.5752599
  34.3522094  -5.1190720  14.8952599  35.4142094  -4.2150720  15.4862599
  25.3492094 -10.1160720  28.7452599  25.3002094  -9.8750720  29.6702599
  26.2152094  -9.8190720  28.4662599  18.9822094 -17.3830720  26.0802599
  18.2452094 -17.1770720  26.6562599  19.6842094 -16.8020720  26.3722599
  34.8172094   6.7789280  18.2002599  34.7542094   5.8269280  18.1192599
  34.7422094   6.9439280  19.1402599  33.9052094   1.6729280  27.7312599
  34.2342094   1.9659280  26.8812599  33.6282094   0.7689280  27.5832599
  35.8302094   1.8529280  12.7462599  36.7342094   2.1579280  12.8142599
  35.4172094   2.4599280  12.1322599  36.8992094   5.4709280  28.7662599
  36.7382094   5.9349280  27.9442599  36.4512094   5.9949280  29.4292599
  32.4902094   4.4459280  22.3872599  32.2392094   4.0329280  21.5612599
  31.8642094   5.1619280  22.4972599  32.3542094   3.5949280  12.4252599
  31.4432094   3.3039280  12.4412599  32.5752094   3.6409280  11.4952599
  24.2412094   5.2969280  38.8192599  23.5802094   5.5449280  39.4652599
  23.7392094   4.9299280  38.0912599  23.2342094 -17.0000720  26.3852599
  23.2682094 -17.0540720  27.3402599  22.6402094 -16.2700720  26.2082599
  35.8792094  -2.3630720  14.4762599  36.7472094  -2.7410720  14.3312599
  35.3492094  -2.6960720  13.7522599  34.5072094  -2.6740720  12.1562599
  35.0002094  -2.3890720  11.3862599  34.5342094  -3.6300720  12.1182599
  34.5442094 -20.3840720  16.8812599  34.8182094 -19.9010720  16.1012599
  35.2012094 -21.0730720  16.9802599  34.7802094   7.3589280  21.0522599
  34.6392094   7.8069280  21.8862599  35.6892094   7.0629280  21.0882599
  19.4572094  -5.1390720  39.3902599  20.1382094  -4.4670720  39.4202599
  19.6412094  -5.6320720  38.5902599  36.6922094 -11.9550720  14.5532599
  36.4242094 -12.1230720  13.6502599  37.5262094 -12.4150720  14.6462599
  33.4482094  -0.9880720  27.1472599  33.1472094  -1.8280720  26.8012599
  34.3392094  -1.1600720  27.4522599   7.3162094 -21.2850720  16.7582599
   7.3212094 -21.3570720  15.8032599   7.8612094 -22.0130720  17.0562599
  30.8252094   7.6199280  37.9882599  31.0502094   7.0919280  38.7542599
  30.9022094   8.5249280  38.2902599  24.9902094 -20.0660720  12.6292599
  25.0052094 -20.2560720  13.5672599  25.1832094 -20.9060720  12.2112599
  32.0212094  -3.4290720  26.1442599  32.3052094  -4.2890720  26.4522599
  31.4502094  -3.1020720  26.8392599  33.1272094   1.5129280  20.7882599
  32.2282094   1.3349280  21.0632599  33.0652094   2.3149280  20.2692599
  15.0332094 -16.9100720  39.4452599  15.4082094 -16.8250720  40.3212599
  14.5502094 -17.7360720  39.4692599  28.2792094 -18.7170720  38.3322599
  28.8162094 -19.2980720  38.8712599  28.8932094 -18.0610720  38.0012599
  31.8762094   4.9319280  34.6032599  32.6482094   4.8439280  34.0442599
  31.2082094   4.3939280  34.1772599  26.9762094   5.7489280  33.9072599
  27.7262094   5.5789280  33.3372599  26.7902094   6.6809280  33.7862599
  29.1862094   5.9829280  11.6322599  30.1112094   6.0479280  11.3952599
  28.9152094   5.1249280  11.3052599  35.8902094   1.6719280  30.9232599
  36.7442094   2.0729280  30.7642599  35.2692094   2.2419280  30.4682599
  36.1132094  -2.2090720  39.7272599  35.6812094  -2.5340720  38.9372599
  36.9322094  -2.7010720  39.7732599  29.6402094   1.2679280  35.0012599
  30.4772094   1.7329280  35.0212599  29.1082094   1.7579280  34.3742599
  36.5202094  -1.4570720  20.2252599  37.3262094  -1.0560720  19.8992599
  35.9002094  -1.3690720  19.5012599  36.9262094 -20.3140720  33.3412599
  37.1592094 -20.9660720  32.6802599  35.9842094 -20.4290720  33.4702599
  21.8012094   2.7459280  39.4822599  20.9432094   3.1689280  39.5032599
  22.2762094   3.1999280  38.7862599  33.5882094 -11.4350720  40.2842599
  33.5682094 -10.8840720  41.0662599  33.4402094 -10.8270720  39.5592599
  36.2872094   4.8679280  36.6002599  35.7112094   4.9219280  37.3622599
  35.7792094   4.3829280  35.9492599  34.6162094   3.0649280  35.1782599
  33.8012094   2.9769280  34.6852599  34.5552094   2.3989280  35.8632599
  33.6392094  -3.3210720  34.5942599  33.7852094  -2.4900720  34.1432599
  32.7042094  -3.4950720  34.4832599  33.8152094 -16.3950720  40.7702599
  32.9912094 -16.7920720  40.4882599  33.8102094 -15.5250720  40.3712599
  31.0642094   0.2019280  37.7942599  31.7502094   0.6829280  37.3322599
  30.2802094   0.7409280  37.6862599  35.2542094  -6.5550720  30.8052599
  35.2612094  -5.6200720  30.5972599  34.3762094  -6.7180720  31.1482599
  33.2512094  -4.0260720  39.4852599  33.9412094  -4.6560720  39.2802599
  33.6122094  -3.1800720  39.2202599  37.0932094   6.4689280  32.4802599
  36.5632094   6.8179280  33.1972599  37.2292094   5.5489280  32.7072599
  34.7432094   1.7369280  39.0692599  35.3822094   2.2369280  39.5762599
  35.2462094   1.3729280  38.3412599  34.9972094  -3.6460720  37.2522599
  34.5472094  -3.2600720  36.5012599  35.0582094  -4.5780720  37.0422599
  28.0102094  -1.1250720  35.1602599  28.6292094  -0.3980720  35.2252599
  27.9972094  -1.3460720  34.2282599  33.3042094 -20.8870720  37.1532599
  33.0742094 -21.4760720  36.4352599  34.0972094 -21.2670720  37.5312599
  31.2852094  -9.3080720  39.9992599  30.8922094  -8.4350720  39.9912599
  30.5482094  -9.9010720  40.1492599  10.9832094 -18.9240720  12.1502599
  10.3462094 -18.4660720  11.6012599  10.4562094 -19.5100720  12.6922599
  36.2652094   0.4459280  37.1082599  36.9802094  -0.0580720  37.4972599
  36.6562094   0.8639280  36.3412599  33.6452094   0.5389280  36.4392599
  34.4872094   0.1219280  36.6222599  33.3232094   0.0939280  35.6542599
  31.4572094   7.6509280  35.2772599  31.4742094   7.3849280  36.1962599
  31.6572094   6.8509280  34.7922599  26.5842094   1.2639280  35.8522599
  26.6952094   0.5419280  35.2332599  27.2992094   1.1559280  36.4782599
  27.9252094 -17.6620720  30.8612599  28.0502094 -17.6120720  29.9142599
  28.7962094 -17.5110720  31.2272599  36.2072094   7.2489280  34.9472599
  37.0492094   7.5999280  35.2392599  36.0332094   6.5179280  35.5402599
  24.0232094 -20.3540720  37.7042599  24.6632094 -20.9690720  38.0642599
  24.3102094 -19.4970720  38.0192599  24.2272094   6.8479280  35.4322599
  24.7682094   6.9419280  36.2162599  24.3622094   5.9419280  35.1552599
  30.8072094   3.3889280  32.6902599  30.0392094   3.0349280  32.2412599
  31.3372094   3.7739280  31.9922599  28.4402094   1.9529280  31.4022599
  27.7052094   1.5179280  30.9712599  28.0432094   2.4289280  32.1312599
  31.6092094 -12.1480720  30.7302599  32.4402094 -11.9330720  31.1542599
  30.9412094 -11.8070720  31.3252599  31.1452094 -19.8970720  33.9762599
  30.2712094 -19.6180720  34.2512599  31.1882094 -20.8230720  34.2152599
  35.9932094  -5.4380720  39.6532599  36.6022094  -4.7090720  39.5382599
  36.5542094  -6.2090720  39.7362599  30.7802094  -1.1180720  16.7172599
  31.6422094  -1.5170720  16.8362599  30.8112094  -0.7340720  15.8412599
  28.2062094   0.3919280  27.9602599  27.8282094   0.4969280  28.8342599
  28.6442094   1.2249280  27.7862599  36.5452094 -15.0980720  32.3562599
  36.1562094 -15.3930720  31.5332599  36.2132094 -15.7110720  33.0122599
  31.7532094   6.3489280  40.2022599  32.1152094   5.5039280  39.9362599
  32.3692094   6.6789280  40.8562599  29.5032094 -20.9610720  10.6342599
  30.0362094 -21.2380720  11.3792599  30.1392094 -20.7470720   9.9512599
   9.2512094 -19.1220720  30.2542599   9.2232094 -18.4630720  29.5602599
   8.5792094 -19.7580720  30.0092599  27.5732094   2.6439280  33.8182599
  27.2702094   3.5429280  33.9442599  27.0262094   2.1219280  34.4052599
   8.0562094 -15.3470720  11.5192599   8.3852094 -14.8930720  10.7432599
   8.8002094 -15.3660720  12.1202599  26.5892094  -4.5600720  44.0762599
  26.4942094  -5.4380720  44.4462599  25.8242094  -4.4550720  43.5112599
  14.1512094   5.7099280  44.7472599  13.4462094   5.1529280  45.0772599
  14.1762094   6.4489280  45.3552599  13.0662094 -14.5950720  49.3152599
  12.6012094 -15.3920720  49.0622599  13.0902094 -14.0680720  48.5162599
   7.8232094  -7.4910720  49.1502599   7.0002094  -7.1710720  48.7782599
   8.0962094  -8.1920720  48.5592599  18.4132094 -10.2160720  46.3182599
  17.8292094  -9.7660720  46.9282599  18.8662094 -10.8670720  46.8542599
  29.2672094 -12.0600720  46.9502599  29.1782094 -11.8260720  46.0262599
  29.9262094 -11.4530720  47.2882599  35.2242094 -16.0010720  46.1632599
  34.2842094 -15.8810720  46.0272599  35.4032094 -16.8850720  45.8442599
  25.5502094  -0.2050720  41.2952599  24.8962094   0.4849280  41.1812599
  25.4662094  -0.7470720  40.5112599  17.8722094  -5.5800720  47.2792599
  18.3212094  -4.7390720  47.3632599  17.0642094  -5.4710720  47.7812599
   9.5762094  -0.7940720  44.4602599  10.3692094  -0.2580720  44.4612599
   9.8602094  -1.6440720  44.7962599  20.7172094  -6.8860720  41.1492599
  20.0882094  -7.5870720  41.3202599  20.2652094  -6.3010720  40.5412599
  18.9472094   1.5539280  49.1572599  18.8772094   2.3179280  48.5862599
  19.2632094   0.8539280  48.5852599  21.7182094   4.4849280  42.5052599
  22.3422094   4.4789280  41.7792599  22.1592094   3.9999280  43.2032599
   8.7762094 -13.6960720  45.7522599   9.1002094 -14.4840720  45.3172599
   9.5622094 -13.2700720  46.0952599  35.7222094  -5.9930720  48.2572599
  35.6362094  -5.4150720  47.4992599  35.3752094  -5.4830720  48.9892599
  15.5412094 -15.1800720  44.1162599  16.2052094 -14.6580720  43.6662599
  15.1752094 -14.5870720  44.7732599  14.9812094  -7.7940720  47.7062599
  14.3462094  -8.0550720  48.3732599  15.5522094  -8.5560720  47.6072599
  29.6422094 -17.9590720  43.2782599  28.8692094 -17.9890720  42.7142599
  29.9852094 -17.0720720  43.1672599  18.3792094   4.7329280  42.1722599
  18.4382094   5.6829280  42.2742599  18.8262094   4.3809280  42.9412599
  21.7202094  -2.0380720  48.4212599  21.2082094  -2.6030720  48.9992599
  21.0942094  -1.3840720  48.1092599  12.1042094  -7.4840720  46.6682599
  12.4302094  -8.2830720  47.0832599  11.5832094  -7.0560720  47.3472599
  10.1872094   2.1569280  45.6072599   9.7472094   1.5669280  46.2192599
  10.9782094   1.6859280  45.3452599  14.5642094   7.2479280  42.2942599
  13.8682094   6.7229280  41.8992599  14.4742094   7.0959280  43.2352599
  22.8772094  -2.9570720  45.1632599  23.0542094  -2.9610720  44.2232599
  23.4352094  -3.6510720  45.5152599  13.1942094 -20.6840720  45.0772599
  14.0432094 -21.0930720  44.9082599  13.3482094 -19.7490720  44.9452599
  16.5992094 -12.8430720  47.1782599  17.0882094 -13.1090720  47.9572599
  17.2062094 -12.2820720  46.6952599  15.8502094   1.5209280  46.3412599
  16.3512094   1.1389280  47.0622599  16.4922094   1.6459280  45.6422599
  19.3782094 -18.5370720  47.2632599  19.7702094 -18.0570720  47.9932599
  20.0132094 -19.2240720  47.0582599  11.6772094 -17.2490720  49.2252599
  11.0062094 -17.8870720  49.4652599  11.9392094 -17.4970720  48.3392599
  19.8032094 -18.8220720  43.2602599  19.4352094 -18.4520720  42.4582599
  20.4622094 -18.1850720  43.5382599  20.7922094 -11.8710720  43.7822599
  21.2692094 -12.6180720  44.1422599  21.4082094 -11.1400720  43.8452599
  17.8682094 -10.2790720  41.0892599  18.1502094  -9.5990720  40.4772599
  17.7812094  -9.8250720  41.9282599  13.3852094   7.2219280  48.0062599
  12.8102094   7.7579280  48.5512599  14.1262094   7.7929280  47.8032599
  29.3462094  -9.5830720  49.3082599  29.3902094  -8.6320720  49.2162599
  30.0052094  -9.9150720  48.6982599  17.3302094 -13.0200720  43.5602599
  17.9872094 -12.9590720  42.8672599  17.7812094 -12.7110720  44.3462599
  19.7032094 -12.1720720  47.6582599  20.1112094 -12.6080720  46.9092599
  19.8052094 -12.7910720  48.3812599  15.6892094 -17.4260720  49.2262599
  16.0502094 -17.1100720  48.3982599  16.1682094 -18.2360720  49.4032599
  11.3592094 -13.5240720  47.1722599  10.7872094 -13.2330720  47.8822599
  11.5102094 -12.7380720  46.6472599  14.8332094  -5.9750720  41.1752599
  15.3252094  -6.6580720  41.6302599  15.3372094  -5.1750720  41.3252599
  16.9592094 -18.6800720  46.2552599  17.8082094 -18.8290720  46.6732599
  16.9872094 -19.2090720  45.4582599  26.9632094  -4.5430720  47.4072599
  26.8132094  -3.7680720  46.8672599  26.3172094  -4.4750720  48.1102599
  16.6822094  -5.6330720  44.4882599  16.9532094  -5.7650720  45.3972599
  17.0932094  -4.8070720  44.2332599  19.5172094   1.8749280  44.6462599
  18.7582094   1.3589280  44.3752599  20.2622094   1.4419280  44.2302599
  11.0432094   6.7029280  46.7242599  10.7202094   7.5579280  46.4392599
  11.9272094   6.8749280  47.0462599  26.1782094 -13.2170720  46.5832599
  27.0962094 -13.1860720  46.8542599  26.0322094 -14.1290720  46.3342599
  12.9902094  -5.4860720  44.9262599  13.7822094  -5.9220720  44.6122599
  12.8052094  -5.9030720  45.7682599  22.8222094  -9.9130720  44.3372599
  23.6422094 -10.3900720  44.4602599  22.6512094  -9.5050720  45.1872599
  16.0752094  -1.1480720  42.2132599  15.4702094  -1.7860720  42.5912599
  15.9592094  -0.3620720  42.7472599  20.6312094 -21.0000720  45.7392599
  21.4482094 -21.0210720  46.2362599  20.9052094 -21.0540720  44.8232599
  19.0482094 -12.6930720  41.4322599  18.6602094 -11.8620720  41.1602599
  19.9922094 -12.5380720  41.4062599  21.9192094 -16.5340720  47.3502599
  22.4752094 -17.3100720  47.2812599  22.4552094 -15.8950720  47.8202599
  20.8632094  -9.5240720  48.9252599  20.1452094  -9.1170720  49.4112599
  20.5782094 -10.4270720  48.7882599  10.3852094  -6.2770720  48.6092599
   9.7872094  -6.1500720  47.8732599   9.9132094  -6.8570720  49.2052599
  20.1402094  -3.3730720  45.3252599  20.0132094  -3.0860720  46.2292599
  21.0732094  -3.2370720  45.1592599  12.4762094  -4.9670720  41.8582599
  13.3852094  -5.1630720  42.0872599  12.2822094  -5.5530720  41.1272599
  25.1512094 -16.7860720  40.9482599  24.2392094 -16.5180720  41.0642599
  25.3852094 -17.2050720  41.7772599  13.2692094  -9.8080720  43.7402599
  12.4492094  -9.3150720  43.7032599  13.9072094  -9.1860720  44.0892599
  19.0672094  -9.6230720  43.7542599  18.7832094  -9.6010720  44.6672599
  19.4712094 -10.4840720  43.6482599  13.5692094 -17.6860720  46.8922599
  14.0112094 -17.4030720  47.6922599  13.9642094 -17.1560720  46.1992599
  28.1802094  -4.7470720  42.1002599  28.5372094  -3.8730720  41.9412599
  27.5922094  -4.6340720  42.8462599  25.1612094 -11.3680720  44.9542599
  25.7512094 -10.6240720  45.0792599  25.4132094 -11.9910720  45.6352599
  15.1892094  -7.7630720  44.9012599  15.8712094  -7.1490720  44.6302599
  15.1132094  -7.6360720  45.8472599  15.6932094   7.9859280  45.3342599
  16.4472094   8.2519280  44.8072599  15.8492094   8.3819280  46.1912599
  25.0442094 -15.7670720  46.9342599  25.9612094 -15.9520720  46.7322599
  24.5552094 -16.1570720  46.2102599  15.0112094 -11.8590720  42.5162599
  15.8862094 -12.1690720  42.7482599  14.5572094 -11.7700720  43.3542599
  34.3202094  -8.0740720  47.1902599  33.4002094  -7.8400720  47.0682599
  34.7182094  -7.2900720  47.5682599  12.5632094 -15.7130720  45.1542599
  13.1252094 -14.9710720  44.9312599  12.3142094 -15.5600720  46.0662599
  30.7742094 -10.2880720  43.9552599  29.8822094  -9.9420720  43.9372599
  31.2992094  -9.6200720  43.5142599  24.2462094 -17.2730720  44.3082599
  24.5102094 -18.1360720  44.6272599  23.5202094 -17.4510720  43.7092599
  36.0182094 -14.2920720  42.9022599  36.0572094 -14.5860720  43.8122599
  36.7272094 -14.7670720  42.4672599  12.8612094   2.0559280  40.6962599
  13.2822094   2.3049280  41.5192599  13.5712094   1.7009280  40.1622599
  10.2152094  -3.2960720  42.0472599  10.3442094  -2.3480720  42.0762599
  11.0602094  -3.6450720  41.7662599  10.7422094  -8.7820720  43.8892599
   9.9092094  -9.1500720  44.1862599  10.6492094  -7.8390720  44.0252599
  17.3072094 -19.8010720  44.0262599  16.7572094 -19.7300720  43.2452599
  18.1612094 -19.4700720  43.7482599  14.9892094  -5.0200720  47.6782599
  14.8022094  -5.9500720  47.8032599  15.0202094  -4.6590720  48.5642599
  20.2212094  -7.1620720  43.8552599  20.6172094  -6.8870720  43.0292599
  19.7892094  -7.9910720  43.6502599  14.3982094 -13.5580720  46.0002599
  13.8292094 -12.8060720  46.1652599  15.1562094 -13.4150720  46.5662599
  28.2522094 -11.9240720  42.6282599  28.7202094 -12.5470720  43.1832599
  28.7322094 -11.9330720  41.7992599  12.0822094  -2.7110720  47.1052599
  12.4792094  -1.8660720  47.3182599  12.5962094  -3.0380720  46.3672599
   8.0652094   7.5689280  41.8312599   8.3652094   8.0809280  41.0802599
   8.2252094   6.6589280  41.5812599  23.3392094  -4.7290720  47.5272599
  22.6342094  -5.0230720  46.9492599  22.8972094  -4.4870720  48.3412599
  16.9032094  -4.3000720  41.2582599  17.6682094  -4.6750720  40.8222599
  17.2652094  -3.8030720  41.9922599  21.5742094  -0.6290720  41.6652599
  20.7042094  -0.3440720  41.3862599  22.0362094  -0.8230720  40.8502599
  34.1172094  -9.6560720  42.4752599  34.1082094  -9.0810720  43.2412599
  34.8212094 -10.2800720  42.6502599  23.0212094 -18.2530720  42.1072599
  23.5802094 -19.0290720  42.0692599  22.6762094 -18.1620720  41.2192599
  24.0862094   8.3799280  46.2922599  23.9372094   7.6449280  46.8882599
  23.8032094   8.0559280  45.4372599  17.0172094   5.6649280  46.0152599
  16.1202094   5.8829280  45.7612599  17.5552094   5.9789280  45.2882599
  18.2742094   4.1429280  47.9392599  18.0812094   4.6249280  48.7422599
  17.9472094   4.7059280  47.2372599  21.1542094  -6.0320720  46.4052599
  21.3052094  -6.9700720  46.2912599  20.5702094  -5.7940720  45.6852599
  16.9092094   6.5059280  49.2302599  16.6092094   6.4979280  48.3222599
  16.3342094   7.1339280  49.6672599  21.0472094 -14.8250720  43.0842599
  20.2552094 -14.3620720  42.8082599  20.7382094 -15.4700720  43.7202599
  17.6932094  -1.6970720  46.7242599  17.0432094  -2.0500720  46.1172599
  17.1822094  -1.1860720  47.3522599  20.2782094 -16.4380720  45.2782599
  20.8702094 -16.4470720  46.0302599  19.5852094 -17.0560720  45.5112599
   7.2252094  -0.0860720  45.3132599   8.1182094  -0.4090720  45.1972599
   6.6772094  -0.7270720  44.8592599  22.9482094   4.3179280  45.3602599
  22.8282094   3.5359280  44.8202599  22.1072094   4.4349280  45.8032599
  12.9852094  -0.1670720  47.3792599  13.6412094   0.2159280  47.9612599
  12.1692094  -0.1290720  47.8782599  24.6722094   6.1079280  48.3542599
  23.8262094   5.7249280  48.5842599  25.0592094   5.4849280  47.7392599
   9.4972094  -2.7770720  46.1382599   8.8502094  -2.9380720  46.8262599
  10.3422094  -2.9120720  46.5672599  21.4932094   7.2179280  47.9862599
  21.9432094   6.5829280  48.5422599  21.1542094   6.6999280  47.2562599
  13.6832094  -2.6600720  42.9942599  13.0912094  -2.0450720  42.5612599
  13.1842094  -3.4750720  43.0492599  14.4522094   1.5249280  44.0062599
  14.7602094   2.2879280  43.5182599  14.8332094   1.6279280  44.8782599
  16.3542094 -16.1260720  46.3622599  16.0382094 -15.8930720  45.4892599
  16.6062094 -17.0460720  46.2892599  10.4342094  -6.0800720  43.8242599
  10.8232094  -5.4220720  43.2482599  10.9872094  -6.0720720  44.6052599
  18.4582094   7.8599280  41.3682599  18.3312094   7.5369280  40.4762599
  17.9132094   8.6459280  41.4182599  13.8922094   3.3029280  47.6382599
  14.5012094   2.8199280  47.0802599  13.2392094   3.6549280  47.0332599
   7.9682094  -3.7860720  43.6842599   8.5622094  -3.7310720  44.4332599
   8.4932094  -3.4950720  42.9392599  18.0932094   0.7079280  42.5592599
  18.0582094  -0.1760720  42.1932599  17.6212094   1.2489280  41.9262599
   7.8022094  -6.8210720  43.0472599   7.1732094  -6.1100720  43.1662599
   8.6532094  -6.4210720  43.2242599  27.2732094 -18.5320720  42.0322599
  27.6202094 -19.2160720  41.4592599  26.4122094 -18.8560720  42.2972599
  18.0532094  -3.0920720  43.3782599  17.8592094  -2.1600720  43.4832599
  18.7492094  -3.2650720  44.0132599  20.8312094 -21.1210720  42.4612599
  20.0502094 -21.3440720  41.9552599  20.8362094 -20.1640720  42.4872599
  10.3612094 -20.9810720  45.1882599  11.3162094 -20.9140720  45.1822599
  10.0652094 -20.1560720  45.5722599  16.6082094  -0.1090720  48.5882599
  16.0042094  -0.0820720  49.3302599  17.3982094   0.3289280  48.9062599
  32.6512094   3.6069280  49.1972599  31.7642094   3.8549280  48.9382599
  33.0882094   3.3859280  48.3742599  20.4612094   4.4569280  46.1782599
  20.2652094   4.2909280  47.1002599  19.7002094   4.1199280  45.7062599
  23.8532094  -9.2810720  41.8112599  23.3312094  -8.5260720  41.5382599
  23.4192094  -9.5990720  42.6032599  21.6882094  -8.7120720  46.4862599
  21.5602094  -8.8900720  47.4182599  20.8052094  -8.7230720  46.1162599
  26.2132094  -6.8660720  46.2202599  26.3662094  -6.0230720  46.6462599
  26.0092094  -7.4640720  46.9392599  19.3002094  -3.2150720  48.3512599
  18.9322094  -2.9870720  49.2052599  18.7522094  -2.7460720  47.7212599
  32.4072094  -6.6980720  41.9672599  32.5052094  -7.4780720  41.4202599
  31.6242094  -6.2630720  41.6262599  26.0552094   6.0459280  43.9632599
  26.9142094   5.7639280  44.2762599  25.4402094   5.7129280  44.6162599
  15.5452094 -17.3860720  42.4742599  15.6362094 -16.7430720  43.1772599
  14.7242094 -17.8400720  42.6682599  18.3892094   7.1989280  44.0832599
  18.3992094   8.0299280  44.5592599  18.7922094   7.4019280  43.2382599
   8.8682094   6.8859280  48.1962599   9.5372094   6.3769280  47.7402599
   8.0832094   6.3399280  48.1582599   8.6002094   5.1909280  41.0102599
   9.3762094   5.5039280  40.5452599   8.4222094   4.3319280  40.6282599
  29.5532094  -6.9340720  49.3022599  28.9272094  -6.8980720  50.0252599
  30.3252094  -6.4720720  49.6302599  20.1432094  -0.1980720  46.9782599
  20.6732094   0.2419280  46.3132599  19.5902094  -0.8030720  46.4832599
  10.6282094 -15.3830720  42.5192599  11.1902094 -14.7160720  42.1242599
  11.1632094 -15.7650720  43.2152599  24.1992094   2.0339280  40.7132599
  24.6542094   2.8039280  41.0542599  23.3282094   2.3539280  40.4772599
  25.4462094  -8.9660720  48.0502599  24.8942094  -9.5940720  47.5842599
  24.8462094  -8.5140720  48.6432599   7.3242094 -18.0050720  46.4512599
   7.1792094 -18.9190720  46.2092599   7.2602094 -17.9970720  47.4062599
  11.9352094   4.8659280  42.6952599  12.0182094   4.1449280  43.3192599
  11.1152094   5.2969280  42.9332599  12.7052094  -0.7000720  41.2482599
  11.8002094  -0.6610720  40.9382599  13.0562094   0.1729280  41.0742599
  15.9202094   3.7219280  43.3982599  16.6402094   3.7919280  42.7722599
  15.4802094   4.5709280  43.3532599  12.0562094   0.4419280  45.1072599
  12.6712094   0.7729280  44.4522599  12.5752094   0.3709280  45.9092599
   8.3712094   2.3039280  42.8962599   8.8912094   1.8079280  42.2642599
   8.8092094   2.1579280  43.7342599  33.6882094   1.8459280  44.5042599
  34.4552094   1.7319280  43.9432599  33.3402094   2.7039280  44.2632599
  25.6742094 -13.5360720  42.2212599  26.3872094 -13.1820720  42.7522599
  25.2382094 -12.7640720  41.8592599  21.6402094  -0.6540720  44.3922599
  21.5552094  -0.7970720  43.4492599  22.2102094  -1.3620720  44.6912599
  22.9852094   7.1589280  43.8672599  22.8492094   6.2329280  43.6672599
  22.3172094   7.6159280  43.3562599  21.8582094 -13.7680720  45.9692599
  22.5502094 -13.8890720  45.3192599  21.5872094 -14.6570720  46.1982599
  19.4302094 -15.2180720  48.4912599  20.2512094 -15.6450720  48.2482599
  18.7642094 -15.6620720  47.9662599  32.1482094  -6.4470720  47.0292599
  31.2592094  -6.2200720  46.7552599  32.6792094  -5.6940720  46.7712599
  26.5752094  -9.5400720  42.3222599  25.6322094  -9.4450720  42.1872599
  26.7482094 -10.4670720  42.1552599  34.9482094 -18.7790720  44.5632599
  35.4032094 -19.5460720  44.2152599  34.2282094 -18.6290720  43.9512599
  23.0572094 -14.5470720  41.2742599  22.3902094 -14.7120720  41.9412599
  23.6442094 -13.9070720  41.6752599  32.6382094 -14.5940720  46.1132599
  32.0732094 -15.3570720  45.9922599  32.9512094 -14.3850720  45.2322599
  23.8952094 -14.5580720  44.5002599  24.3842094 -14.0490720  43.8532599
  23.9722094 -15.4640720  44.2002599  36.7202094 -20.8640720  43.9902599
  37.3832094 -20.8010720  43.3032599  36.3302094 -21.7300720  43.8682599
   7.7462094 -18.1270720  42.7202599   8.0912094 -17.6220720  41.9842599
   6.8072094 -18.1940720  42.5462599  32.6402094   1.4369280  46.9612599
  33.3512094   1.0279280  47.4552599  33.0132094   1.6009280  46.0952599
  27.0162094  -9.4020720  45.4542599  27.4752094  -9.2420720  46.2782599
  26.7422094  -8.5340720  45.1592599   8.8832094  -7.0010720  46.2682599
   8.2612094  -7.0510720  45.5412599   8.9492094  -7.9000720  46.5892599
  28.8132094  -2.0770720  41.8172599  29.5912094  -2.4810720  42.2002599
  28.5732094  -1.3850720  42.4332599  36.4052094   2.2019280  46.4522599
  36.5532094   2.7549280  45.6852599  36.6182094   1.3169280  46.1552599
  32.9242094  -2.4180720  48.7942599  32.0372094  -2.4360720  49.1532599
  33.3742094  -3.1400720  49.2312599  23.8412094 -11.9950720  47.7142599
  23.4732094 -12.4620720  46.9632599  24.7452094 -12.3030720  47.7692599
  25.5302094   4.1829280  46.6572599  26.0532094   3.4359280  46.3652599
  24.7842094   4.2019280  46.0582599  11.9802094   4.2489280  45.8622599
  11.5402094   5.0729280  46.0742599  11.2672094   3.6309280  45.7022599
   7.2182094 -15.2290720  47.9032599   6.6402094 -15.6700720  47.2792599
   7.8962094 -14.8270720  47.3592599  19.2282094 -17.7750720  40.9232599
  18.6362094 -17.0520720  40.7162599  19.9032094 -17.7340720  40.2452599
  30.1592094   8.2069280  47.2942599  29.5052094   8.5439280  47.9062599
  30.8312094   7.8149280  47.8532599  37.2192094 -12.2080720  47.9612599
  36.2832094 -12.3100720  48.1332599  37.3592094 -12.6530720  47.1262599
   9.8242094 -12.6370720  49.2482599  10.2472094 -12.4350720  50.0832599
   8.9582094 -12.2360720  49.3152599  13.2532094 -18.0590720  43.9492599
  12.9002094 -17.1950720  44.1632599  12.5632094 -18.4780720  43.4342599
  27.3502094 -18.3150720  47.7882599  27.9762094 -18.8810720  48.2412599
  26.6162094 -18.2340720  48.3962599  13.0742094 -11.2830720  45.9782599
  12.8232094 -10.7270720  46.7162599  13.0602094 -10.6980720  45.2212599
  23.1392094  -5.6190720  41.2892599  22.2572094  -5.9570720  41.4422599
  23.5782094  -6.3110720  40.7942599  29.3522094 -13.7960720  49.2492599
  30.2662094 -14.0800720  49.2172599  29.3152094 -13.0400720  48.6632599
  31.5742094 -10.6660720  47.8522599  31.8822094 -10.2190720  48.6402599
  32.2862094 -10.5580720  47.2212599  31.6182094 -13.3310720  40.7802599
  32.1872094 -12.7310720  40.2982599  32.1372094 -13.5950720  41.5402599
  27.6332094 -15.8390720  46.5652599  27.8772094 -16.6250720  47.0532599
  28.4682094 -15.4640720  46.2822599  30.2282094   4.1349280  48.3622599
  29.4042094   4.5509280  48.1092599  30.2462094   3.3159280  47.8672599
   8.3912094  -3.2320720  48.7732599   8.9742094  -3.1040720  49.5222599
   7.6012094  -3.6220720  49.1472599  31.9752094 -19.4490720  46.5132599
  31.3712094 -20.1920720  46.5262599  32.8452094 -19.8480720  46.5182599
  34.9532094  -7.9650720  44.4612599  34.9262094  -7.7220720  45.3862599
  35.0882094  -7.1370720  43.9992599  31.6922094 -17.7780720  48.9512599
  31.8532094 -18.4380720  48.2772599  32.5562094 -17.6010720  49.3252599
  35.0792094  -5.6040720  42.4282599  34.2502094  -6.0690720  42.3092599
  35.4572094  -5.5600720  41.5502599  11.5932094 -10.6940720  41.6622599
  10.8872094 -10.1210720  41.9612599  12.3112094 -10.5300720  42.2742599
  34.4252094 -16.5940720  48.6752599  34.5782094 -15.6730720  48.8882599
  34.7482094 -16.6890720  47.7792599  23.9732094  -3.1430720  42.2952599
  23.9092094  -4.0340720  41.9512599  24.6002094  -2.7080720  41.7182599
  15.7012094  -2.6390720  45.3082599  15.6322094  -3.5690720  45.5242599
  15.0612094  -2.5070720  44.6092599   8.1022094  -9.3660720  44.1272599
   7.9542094  -8.7040720  43.4522599   7.4322094 -10.0300720  43.9632599
  30.2082094 -13.1300720  44.1192599  30.4022094 -12.1940720  44.0642599
  30.6252094 -13.4140720  44.9332599  25.5842094 -19.7970720  45.1212599
  25.3592094 -20.5320720  45.6912599  26.5402094 -19.7570720  45.1482599
   8.1662094  -9.7800720  47.0802599   7.9932094  -9.9950720  46.1632599
   8.0252094 -10.6020720  47.5502599  30.2752094 -15.5190720  42.9002599
  30.3052094 -14.6010720  43.1692599  29.7642094 -15.5160720  42.0912599
  26.6172094   7.4539280  41.4832599  27.5742094   7.4459280  41.4772599
  26.3772094   6.9339280  42.2502599  15.1102094 -20.6350720  47.6752599
  15.5732094 -20.1600720  48.3652599  14.7992094 -19.9520720  47.0812599
  33.2502094 -15.3620720  43.4872599  33.9632094 -15.0880720  42.9102599
  32.6632094 -15.8630720  42.9212599  32.5992094  -0.7490720  42.1462599
  32.6872094  -0.5640720  41.2112599  33.4112094  -1.1990720  42.3792599
  36.5922094 -11.7870720  41.8302599  36.9702094 -11.9470720  40.9662599
  36.0752094 -12.5720720  42.0152599  28.9512094  -8.2030720  42.9982599
  28.9612094  -7.8570720  42.1062599  28.1432094  -8.7140720  43.0482599
  35.2182094   4.2059280  40.8152599  34.8392094   4.8199280  40.1852599
  35.9782094   4.6669280  41.1702599  35.9472094   6.6199280  43.6622599
  36.0632094   5.7209280  43.9702599  36.6652094   6.7579280  43.0452599
  29.6202094   2.9069280  41.4332599  28.8442094   2.8349280  41.9892599
  29.6932094   2.0509280  41.0112599  26.7442094  -2.3050720  45.4062599
  27.0152094  -3.0630720  44.8892599  26.7592094  -1.5750720  44.7872599
  34.1272094 -10.9930720  46.1622599  34.4842094 -10.1280720  46.3602599
  34.7302094 -11.3590720  45.5142599   8.9012094 -16.8160720  44.8412599
   8.5802094 -17.2330720  44.0412599   8.2732094 -17.0750720  45.5152599
  33.8992094   7.3299280  41.8382599  34.7192094   6.9789280  42.1852599
  33.5192094   7.8189280  42.5682599  31.3632094  -3.0550720  42.3802599
  31.7212094  -2.1900720  42.1792599  32.0152094  -3.4570720  42.9552599
  35.0762094 -18.6250720  41.4032599  34.3262094 -19.1980720  41.5642599
  34.7582094 -17.7480720  41.6142599  31.1882094 -16.8570720  45.6852599
  31.0722094 -17.0410720  44.7532599  31.4352094 -17.6990720  46.0672599
  12.4652094 -10.0080720  48.1622599  12.0322094 -10.6410720  48.7362599
  12.7622094  -9.3150720  48.7512599  34.6612094 -13.2680720  47.9912599
  34.2662094 -12.5080720  47.5632599  34.6402094 -13.9550720  47.3252599
  11.8262094 -13.3580720  40.9752599  11.7372094 -12.4220720  41.1542599
  12.7672094 -13.5240720  41.0302599  10.9732094 -18.4250720  46.1552599
  11.9272094 -18.3480720  46.1882599  10.6902094 -17.6800720  45.6252599
  25.7032094   4.1369280  41.3312599  25.8002094   5.0389280  41.6372599
  26.3842094   4.0359280  40.6652599  29.7342094  -5.9870720  44.9022599
  29.0762094  -5.4760720  44.4302599  29.6772094  -6.8630720  44.5212599
  29.1582094   8.1669280  44.9042599  28.6792094   8.9889280  45.0002599
  29.4802094   7.9719280  45.7842599  23.4242094 -18.9710720  47.6502599
  23.6852094 -19.8470720  47.3672599  24.2442094 -18.5440720  47.8962599
  27.5162094   2.5439280  43.4382599  26.7922094   3.0329280  43.0492599
  27.4372094   2.7059280  44.3782599  34.3362094  -0.1490720  48.7402599
  34.2042094   0.4349280  49.4872599  33.5532094  -0.6990720  48.7232599
  28.3012094 -19.4530720  45.3532599  28.2982094 -18.9040720  46.1382599
  28.7482094 -18.9240720  44.6922599   9.2672094   6.7699280  44.1222599
   8.8352094   7.2109280  43.3912599   9.6542094   7.4799280  44.6352599
  24.6462094  -1.9490720  47.5472599  23.7582094  -2.2940720  47.6412599
  24.9082094  -2.2000720  46.6612599  27.1192094   1.9829280  46.0662599
  26.6462094   1.1509280  46.0832599  28.0332094   1.7419280  46.2172599
  28.7132094   5.4599280  44.5482599  29.0202094   5.1389280  43.7002599
  28.9882094   6.3769280  44.5712599  29.7532094   1.6189280  46.8632599
  29.7012094   0.8349280  47.4102599  30.6712094   1.6659280  46.5962599
  31.2992094   0.2619280  44.3492599  31.9442094   0.8849280  44.6832599
  31.6242094   0.0209280  43.4822599  32.5102094  -5.0440720  44.3442599
  32.6172094  -5.7000720  43.6552599  31.6762094  -5.2660720  44.7592599
  26.9002094  -0.0240720  48.2052599  26.3052094  -0.6920720  47.8642599
  27.6982094  -0.5040720  48.4242599  34.6582094   4.2719280  47.1212599
  34.9452094   3.3689280  47.2512599  34.5832094   4.3659280  46.1712599
  32.7032094 -19.4230720  42.8882599  31.8842094 -18.9300720  42.8432599
  32.4662094 -20.2450720  43.3172599  35.0252094  -5.0860720  45.5752599
  34.3522094  -5.1190720  44.8952599  35.4142094  -4.2150720  45.4862599
  31.8152094   8.1489280  43.8792599  30.8682094   8.0359280  43.9552599
  32.1692094   7.7399280  44.6692599  31.3422094   6.9049280  49.2852599
  32.1742094   6.4319280  49.3002599  30.7112094   6.2919280  49.6622599
  34.8172094   6.7789280  48.2002599  34.7542094   5.8269280  48.1192599
  34.7422094   6.9439280  49.1402599  35.8302094   1.8529280  42.7462599
  36.7342094   2.1579280  42.8142599  35.4172094   2.4599280  42.1322599
  22.6482094   1.8979280  43.6502599  23.1312094   1.7159280  42.8442599
  22.5532094   1.0429280  44.0702599  32.3542094   3.5949280  42.4252599
  31.4432094   3.3039280  42.4412599  32.5752094   3.6409280  41.4952599
  28.3412094   5.6019280  47.1622599  28.6062094   5.3749280  46.2712599
  28.7232094   6.4659280  47.3142599  35.8792094  -2.3630720  44.4762599
  36.7472094  -2.7410720  44.3312599  35.3492094  -2.6960720  43.7522599
  34.5072094  -2.6740720  42.1562599  35.0002094  -2.3890720  41.3862599
  34.5342094  -3.6300720  42.1182599   7.3582094   4.3079280  44.2562599
   7.7902094   3.7659280  43.5952599   8.0312094   4.9289280  44.5342599
  29.0942094  -1.2990720  48.9002599  28.9792094  -2.2430720  49.0032599
  29.5992094  -1.2050720  48.0932599  34.5442094 -20.3840720  46.8812599
  34.8182094 -19.9010720  46.1012599  35.2012094 -21.0730720  46.9802599
  36.6922094 -11.9550720  44.5532599  36.4242094 -12.1230720  43.6502599
  37.5262094 -12.4150720  44.6462599   7.3162094 -21.2850720  46.7582599
   7.3212094 -21.3570720  45.8032599   7.8612094 -22.0130720  47.0562599
  24.9902094 -20.0660720  42.6292599  25.0052094 -20.2560720  43.5672599
  25.1832094 -20.9060720  42.2112599  28.4722094  -0.1230720  43.8172599
  29.3782094   0.0379280  44.0802599  28.1162094   0.7469280  43.6402599
   7.7382094   1.4689280  49.0002599   7.3732094   1.8739280  48.2142599
   7.0442094   1.5469280  49.6552599  33.2662094   7.0919280  45.9412599
  33.7052094   7.3819280  46.7412599  33.7182094   6.2829280  45.7002599
  29.1862094   5.9829280  41.6322599  30.1112094   6.0479280  41.3952599
  28.9152094   5.1249280  41.3052599  24.8002094  -0.8190720  43.8382599
  24.6022094  -1.6700720  43.4462599  24.9602094  -0.2430720  43.0912599
  10.9832094 -18.9240720  42.1502599  10.3462094 -18.4660720  41.6012599
  10.4562094 -19.5100720  42.6922599  33.3452094   4.8399280  44.5232599
  32.8542094   5.6489280  44.6662599  32.9972094   4.4909280  43.7032599
   9.8912094  -0.4030720  41.1492599   9.0502094   0.0549280  41.1582599
  10.0772094  -0.5430720  40.2202599  30.7802094  -1.1180720  46.7172599
  31.6422094  -1.5170720  46.8362599  30.8112094  -0.7340720  45.8412599
  29.5032094 -20.9610720  40.6342599  30.0362094 -21.2380720  41.3792599
  30.1392094 -20.7470720  39.9512599   8.0562094 -15.3470720  41.5192599
   8.3852094 -14.8930720  40.7432599   8.8002094 -15.3660720  42.1202599
  26.5892094  25.4399280 -15.9237401  26.4942094  24.5619280 -15.5537401
  25.8242094  25.5449280 -16.4887401  14.1512094  35.7099280 -15.2527401
  13.4462094  35.1529280 -14.9227401  14.1762094  36.4489280 -14.6447401
  28.3122094   9.5849280   2.3492599  28.1522094   8.7359280   1.9372599
  28.8222094  10.0739280   1.7032599  13.0662094  15.4049280 -10.6847401
  12.6012094  14.6079280 -10.9377401  13.0902094  15.9319280 -11.4837401
   7.8232094  22.5089280 -10.8497401   7.0002094  22.8289280 -11.2217401
   8.0962094  21.8079280 -11.4407401  26.0432094  27.0489280 -10.1017401
  25.6562094  26.6079280  -9.3447401  25.3362094  27.5919280 -10.4497401
  18.4132094  19.7839280 -13.6817401  17.8292094  20.2339280 -13.0717401
  18.8662094  19.1329280 -13.1457401  24.6542094  23.6629280  -1.4777401
  25.1352094  23.5799280  -0.6537401  25.3192094  23.5439280  -2.1557401
  29.2672094  17.9399280 -13.0497401  29.1782094  18.1739280 -13.9737401
  29.9262094  18.5469280 -12.7117401  12.8022094  22.1219280 -10.4357401
  12.9522094  22.1529280  -9.4907401  11.9412094  22.5219280 -10.5557401
  36.4952094  27.3959280  -4.1837401  36.8352094  27.9689280  -3.4957401
  37.0852094  27.5339280  -4.9247401  20.1182094  33.9879280  -5.1877401
  21.0512094  33.7959280  -5.2767401  19.7112094  33.5569280  -5.9387401
  35.2242094  13.9989280 -13.8367401  34.2842094  14.1189280 -13.9727401
  35.4032094  13.1149280 -14.1557401  25.5502094  29.7949280 -18.7047401
  24.8962094  30.4849280 -18.8187401  25.4662094  29.2529280 -19.4887401
  17.8722094  24.4199280 -12.7207401  18.3212094  25.2609280 -12.6367401
  17.0642094  24.5289280 -12.2187401  35.9872094  18.3749280  -3.6127401
  35.0482094  18.4359280  -3.7867401  36.0442094  18.0319280  -2.7207401
   9.5762094  29.2059280 -15.5397401  10.3692094  29.7419280 -15.5387401
   9.8602094  28.3559280 -15.2037401  25.1652094  22.8919280  -8.7207401
  24.4392094  22.7999280  -9.3377401  24.8912094  22.3919280  -7.9517401
  20.7172094  23.1139280 -18.8507401  20.0882094  22.4129280 -18.6797401
  20.2652094  23.6989280 -19.4587401  24.1202094  30.4639280  -6.0187401
  24.4652094  31.3399280  -6.1877401  24.8502094  29.8759280  -6.2127401
  18.9472094  31.5539280 -10.8427401  18.8772094  32.3179280 -11.4137401
  19.2632094  30.8539280 -11.4147401  21.7182094  34.4849280 -17.4947401
  22.3422094  34.4789280 -18.2207401  22.1592094  33.9999280 -16.7967401
   8.7762094  16.3039280 -14.2477401   9.1002094  15.5159280 -14.6827401
   9.5622094  16.7299280 -13.9047401  22.3422094   9.1159280 -10.5137401
  21.9522094   9.8639280 -10.9657401  22.2772094   8.3959280 -11.1407401
  22.6062094  22.4709280  -6.2907401  21.9972094  22.4169280  -5.5537401
  22.0552094  22.6919280  -7.0417401  14.0622094  35.3619280  -9.6277401
  14.2792094  36.2449280  -9.3297401  14.2042094  35.3859280 -10.5737401
  35.7222094  24.0069280 -11.7427401  35.6362094  24.5849280 -12.5007401
  35.3752094  24.5169280 -11.0107401  15.5412094  14.8199280 -15.8837401
  16.2052094  15.3419280 -16.3337401  15.1752094  15.4129280 -15.2267401
  31.5722094  17.8469280  -2.0207401  31.9082094  16.9539280  -2.0907401
  31.4782094  17.9949280  -1.0797401  14.9812094  22.2059280 -12.2937401
  14.3462094  21.9449280 -11.6267401  15.5522094  21.4439280 -12.3927401
  23.0382094  22.4289280 -10.3747401  22.3522094  23.0019280 -10.7167401
  22.5892094  21.6069280 -10.1777401  29.6422094  12.0409280 -16.7217401
  28.8692094  12.0109280 -17.2857401  29.9852094  12.9279280 -16.8327401
  28.4162094  28.9369280  -4.4387401  28.0632094  29.4739280  -3.7287401
  29.1352094  29.4569280  -4.7987401  18.3792094  34.7329280 -17.8277401
  18.4382094  35.6829280 -17.7257401  18.8262094  34.3809280 -17.0587401
  11.8742094  12.0469280  -7.0387401  11.0212094  12.3859280  -7.3127401
  12.4182094  12.8269280  -6.9317401  21.7202094  27.9619280 -11.5787401
  21.2082094  27.3969280 -11.0007401  21.0942094  28.6159280 -11.8907401
  12.1042094  22.5159280 -13.3317401  12.4302094  21.7169280 -12.9167401
  11.5832094  22.9439280 -12.6527401  10.1872094  32.1569280 -14.3927401
   9.7472094  31.5669280 -13.7807401  10.9782094  31.6859280 -14.6547401
  19.9142094  13.1779280  -6.3507401  20.7432094  12.7119280  -6.4627401
  19.5572094  12.8369280  -5.5297401  18.4652094  17.0879280 -10.0357401
  18.5282094  16.3789280  -9.3947401  17.8602094  17.7149280  -9.6417401
  14.5642094  37.2479280 -17.7057401  13.8682094  36.7229280 -18.1007401
  14.4742094  37.0959280 -16.7647401  22.8772094  27.0429280 -14.8367401
  23.0542094  27.0389280 -15.7767401  23.4352094  26.3489280 -14.4847401
  13.1942094   9.3159280 -14.9227401  14.0432094   8.9069280 -15.0917401
  13.3482094  10.2509280 -15.0547401  16.5992094  17.1569280 -12.8217401
  17.0882094  16.8909280 -12.0427401  17.2062094  17.7179280 -13.3047401
  15.8502094  31.5209280 -13.6587401  16.3512094  31.1389280 -12.9377401
  16.4922094  31.6459280 -14.3577401  19.3782094  11.4629280 -12.7367401
  19.7702094  11.9429280 -12.0067401  20.0132094  10.7759280 -12.9417401
  14.4522094  13.9229280  -8.6157401  13.8372094  14.5009280  -9.0677401
  14.8282094  13.3819280  -9.3097401  11.6772094  12.7509280 -10.7747401
  11.0062094  12.1129280 -10.5347401  11.9392094  12.5029280 -11.6607401
  25.3932094  19.6329280  -8.2937401  25.9772094  19.5939280  -9.0507401
  24.5162094  19.5299280  -8.6607401  19.8032094  11.1779280 -16.7397401
  19.4352094  11.5479280 -17.5417401  20.4622094  11.8149280 -16.4617401
  20.7922094  18.1289280 -16.2177401  21.2692094  17.3819280 -15.8577401
  21.4082094  18.8599280 -16.1547401  17.8682094  19.7209280 -18.9107401
  18.1502094  20.4009280 -19.5227401  17.7812094  20.1749280 -18.0717401
  13.3852094  37.2219280 -11.9937401  12.8102094  37.7579280 -11.4487401
  14.1262094  37.7929280 -12.1967401  22.8262094  15.0479280 -10.3987401
  22.8072094  15.0479280  -9.4417401  23.7282094  15.2819280 -10.6197401
  23.3502094  28.7639280  -9.5447401  23.0842094  28.5399280 -10.4357401
  22.9822094  28.0669280  -9.0017401  26.0242094  28.1249280  -5.6967401
  26.8402094  28.2439280  -5.2117401  26.2302094  28.4069280  -6.5877401
  29.3462094  20.4169280 -10.6917401  29.3902094  21.3679280 -10.7837401
  30.0052094  20.0849280 -11.3017401   8.7632094  10.2729280  -7.0067401
   8.8572094   9.8339280  -7.8517401   8.9682094  11.1899280  -7.1877401
  17.3302094  16.9799280 -16.4397401  17.9872094  17.0409280 -17.1327401
  17.7812094  17.2889280 -15.6537401  17.1602094  10.0569280 -10.2197401
  18.0732094  10.2199280 -10.4567401  17.2032094   9.6909280  -9.3367401
  19.7032094  17.8279280 -12.3417401  20.1112094  17.3919280 -13.0907401
  19.8052094  17.2089280 -11.6187401  27.8692094  22.9909280  -8.5277401
  27.6572094  23.4079280  -7.6927401  27.0182094  22.7919280  -8.9187401
  24.5212094   9.7509280  -2.0137401  24.3332094  10.6009280  -1.6157401
  23.7792094   9.1999280  -1.7657401  20.6282094  24.6089280 -10.8817401
  20.5662094  24.3769280 -11.8077401  19.9672094  25.2899280 -10.7597401
  15.6892094  12.5739280 -10.7737401  16.0502094  12.8899280 -11.6017401
  16.1682094  11.7639280 -10.5967401  16.4092094  38.3939280   0.1682599
  16.3082094  37.7549280  -0.5367401  16.9602094  39.0809280  -0.2077401
  11.3592094  16.4759280 -12.8277401  10.7872094  16.7669280 -12.1177401
  11.5102094  17.2619280 -13.3527401  28.1182094  16.5579280  -1.5327401
  27.6772094  16.8759280  -0.7447401  28.4832094  17.3449280  -1.9377401
  10.7342094  37.6309280  -4.9977401  10.6402094  37.1669280  -5.8297401
  11.2652094  38.3989280  -5.2097401  14.8332094  24.0249280 -18.8247401
  15.3252094  23.3419280 -18.3697401  15.3372094  24.8249280 -18.6747401
  16.9592094  11.3199280 -13.7447401  17.8082094  11.1709280 -13.3267401
  16.9872094  10.7909280 -14.5417401  32.1322094  19.1449280   3.0482599
  31.5932094  18.5759280   3.5972599  31.5352094  19.8349280   2.7572599
  26.9632094  25.4569280 -12.5927401  26.8132094  26.2319280 -13.1327401
  26.3172094  25.5249280 -11.8897401  32.1142094  23.7559280  -9.7987401
  32.5032094  23.0229280  -9.3207401  32.5152094  23.7169280 -10.6667401
  12.9292094  19.9859280  -7.0997401  12.6972094  20.2049280  -6.1967401
  13.7722094  20.4159280  -7.2407401  36.2582094  10.8039280  -5.8057401
  36.3772094  11.1589280  -4.9247401  37.1472094  10.6629280  -6.1307401
  21.1292094  36.1829280  -8.1807401  20.7992094  36.0729280  -7.2887401
  20.4002094  36.5789280  -8.6587401  11.2682094  19.4079280  -9.1947401
  10.5452094  20.0189280  -9.0577401  11.8742094  19.5879280  -8.4747401
   9.6572094  10.7049280  -9.8997401   9.1082094  11.4429280 -10.1667401
   9.0692094   9.9499280  -9.9187401  16.6822094  24.3669280 -15.5117401
  16.9532094  24.2349280 -14.6027401  17.0932094  25.1929280 -15.7667401
  19.5172094  31.8749280 -15.3537401  18.7582094  31.3589280 -15.6247401
  20.2622094  31.4419280 -15.7697401  11.0432094  36.7029280 -13.2757401
  10.7202094  37.5579280 -13.5607401  11.9272094  36.8749280 -12.9537401
  26.1782094  16.7829280 -13.4167401  27.0962094  16.8139280 -13.1457401
  26.0322094  15.8709280 -13.6657401  12.9902094  24.5139280 -15.0737401
  13.7822094  24.0779280 -15.3877401  12.8052094  24.0969280 -14.2317401
  22.8222094  20.0869280 -15.6627401  23.6422094  19.6099280 -15.5397401
  22.6512094  20.4949280 -14.8127401  20.8082094  23.4939280  -8.1297401
  20.0232094  23.8059280  -7.6797401  20.6882094  23.7669280  -9.0387401
  16.0752094  28.8519280 -17.7867401  15.4702094  28.2139280 -17.4087401
  15.9592094  29.6379280 -17.2527401  20.6312094   8.9999280 -14.2607401
  21.4482094   8.9789280 -13.7637401  20.9052094   8.9459280 -15.1767401
  15.3182094  25.7579280  -9.7017401  15.2992094  26.6759280  -9.9747401
  15.1842094  25.7869280  -8.7547401  19.0482094  17.3069280 -18.5677401
  18.6602094  18.1379280 -18.8397401  19.9922094  17.4619280 -18.5937401
  32.9632094  24.0129280  -3.7907401  33.7822094  23.8879280  -4.2697401
  33.0182094  23.3999280  -3.0577401  21.9192094  13.4659280 -12.6497401
  22.4752094  12.6899280 -12.7187401  22.4552094  14.1049280 -12.1797401
  34.6402094  20.9169280  -6.7347401  34.1552094  20.0969280  -6.6477401
  35.5032094  20.6529280  -7.0537401  26.9912094  19.3889280 -10.5667401
  27.8942094  19.6979280 -10.6447401  26.4762094  20.0249280 -11.0637401
  20.8632094  20.4759280 -11.0747401  20.1452094  20.8829280 -10.5887401
  20.5782094  19.5729280 -11.2117401  11.6192094   8.4059280 -10.2337401
  12.1412094   8.7649280  -9.5167401  10.8952094   9.0239280 -10.3367401
  10.3852094  23.7229280 -11.3907401   9.7872094  23.8499280 -12.1267401
   9.9132094  23.1429280 -10.7947401  35.9892094  15.1879280  -4.2687401
  35.7822094  14.7759280  -5.1067401  35.1652094  15.5869280  -3.9877401
  27.5412094   9.6279280  -4.9917401  28.4322094   9.5009280  -5.3177401
  27.5152094  10.5449280  -4.7167401  20.1402094  26.6269280 -14.6747401
  20.0132094  26.9139280 -13.7707401  21.0732094  26.7629280 -14.8407401
  12.4762094  25.0329280 -18.1417401  13.3852094  24.8369280 -17.9127401
  12.2822094  24.4469280 -18.8727401  13.1482094   9.7319280  -8.5467401
  13.8962094  10.3269280  -8.5027401  12.3892094  10.2859280  -8.3627401
  25.1132094  22.3309280  -5.2457401  24.1602094  22.3509280  -5.1657401
  25.4322094  22.5799280  -4.3777401  25.1512094  13.2139280 -19.0517401
  24.2392094  13.4819280 -18.9357401  25.3852094  12.7949280 -18.2227401
  13.2692094  20.1919280 -16.2597401  12.4492094  20.6849280 -16.2967401
  13.9072094  20.8139280 -15.9107401  27.9722094  20.3959280  -1.7847401
  28.5182094  19.6829280  -2.1157401  28.0982094  21.1069280  -2.4137401
  23.2832094  19.1829280  -9.8037401  22.4942094  18.7939280  -9.4267401
  23.5202094  18.5979280 -10.5227401  19.0672094  20.3769280 -16.2457401
  18.7832094  20.3989280 -15.3327401  19.4712094  19.5159280 -16.3517401
  23.9892094  29.0029280  -3.4167401  24.7282094  28.4089280  -3.5477401
  23.9072094  29.4719280  -4.2477401  13.5692094  12.3139280 -13.1077401
  14.0112094  12.5969280 -12.3077401  13.9642094  12.8439280 -13.8007401
  28.1802094  25.2529280 -17.8997401  28.5372094  26.1269280 -18.0587401
  27.5922094  25.3659280 -17.1537401  34.3402094  21.5229280  -2.8557401
  34.6882094  20.9369280  -2.1837401  33.6582094  21.0109280  -3.2907401
  35.6692094  19.3709280  -9.7447401  36.0832094  19.6109280  -8.9157401
  36.0892094  19.9339280 -10.3947401  22.0862094  35.0049280 -10.5187401
  22.0232094  35.2609280  -9.5977401  22.0342094  34.0489280 -10.5057401
  13.6192094  17.6769280  -9.7177401  12.8412094  18.2319280  -9.7747401
  13.3802094  16.8789280 -10.1897401  25.1612094  18.6319280 -15.0457401
  25.7512094  19.3759280 -14.9207401  25.4132094  18.0089280 -14.3647401
  17.7202094  13.2729280  -8.3007401  17.6342094  13.9439280  -8.9787401
  18.5672094  13.4509280  -7.8927401  15.1892094  22.2369280 -15.0987401
  15.8712094  22.8509280 -15.3697401  15.1132094  22.3639280 -14.1527401
  15.6932094  37.9859280 -14.6657401  16.4472094  38.2519280 -15.1927401
  15.8492094  38.3819280 -13.8087401  11.2252094  35.6919280  -9.4327401
  12.1602094  35.4839280  -9.4307401  11.1872094  36.6229280  -9.6507401
  25.0442094  14.2329280 -13.0657401  25.9612094  14.0479280 -13.2677401
  24.5552094  13.8429280 -13.7897401  32.0082094  15.8659280 -10.7757401
  32.1182094  15.1669280 -11.4207401  32.6862094  16.5039280 -10.9957401
  16.8372094  20.2779280 -11.5097401  17.5912094  20.7139280 -11.1127401
  16.4652094  19.7499280 -10.8037401  25.0282094  19.7689280   1.6872599
  24.7652094  18.9329280   2.0712599  24.2112094  20.2589280   1.5942599
  23.5942094  12.0649280  -0.3377401  24.2972094  12.7149280  -0.3407401
  23.3842094  11.9429280   0.5882599  15.0112094  18.1409280 -17.4837401
  15.8862094  17.8309280 -17.2517401  14.5572094  18.2299280 -16.6457401
  34.3202094  21.9259280 -12.8097401  33.4002094  22.1599280 -12.9317401
  34.7182094  22.7099280 -12.4317401  22.8862094  22.0819280   2.1232599
  22.1162094  22.6479280   2.0672599  22.9322094  21.8299280   3.0452599
  12.5632094  14.2869280 -14.8457401  13.1252094  15.0289280 -15.0687401
  12.3142094  14.4399280 -13.9337401  28.6872094  29.3269280   2.2772599
  28.7172094  30.2809280   2.2032599  28.4042094  29.0289280   1.4132599
  27.4952094  21.1179280   2.1342599  26.7532094  21.1429280   2.7372599
  27.2212094  21.6589280   1.3932599  30.7742094  19.7119280 -16.0447401
  29.8822094  20.0579280 -16.0627401  31.2992094  20.3799280 -16.4857401
  25.6042094  23.2069280   1.3402599  26.0272094  23.6279280   2.0892599
  24.7122094  23.0279280   1.6382599  27.3142094  25.8499280  -2.1287401
  28.0442094  26.4529280  -2.2677401  27.4522094  25.5049280  -1.2467401
  24.2462094  12.7269280 -15.6917401  24.5102094  11.8639280 -15.3727401
  23.5202094  12.5489280 -16.2907401  19.3302094  21.4859280   4.0952599
  19.9832094  21.5929280   3.4032599  19.0152094  22.3729280   4.2672599
  36.0182094  15.7079280 -17.0977401  36.0572094  15.4139280 -16.1877401
  36.7272094  15.2329280 -17.5327401  25.0242094  14.2369280  -1.0337401
  25.9272094  14.0559280  -1.2967401  24.9732094  15.1919280  -0.9907401
  28.7642094  18.5289280  -5.8277401  27.9892094  18.9509280  -5.4567401
  28.8872094  18.9549280  -6.6757401  21.8672094  37.6749280   7.3152599
  22.5602094  38.2079280   6.9242599  21.5252094  38.2129280   8.0292599
  12.8612094  32.0559280 -19.3037401  13.2822094  32.3049280 -18.4807401
  13.5712094  31.7009280 -19.8377401  10.2152094  26.7039280 -17.9527401
  10.3442094  27.6519280 -17.9237401  11.0602094  26.3549280 -18.2337401
  10.7422094  21.2179280 -16.1107401   9.9092094  20.8499280 -15.8137401
  10.6492094  22.1609280 -15.9747401  27.3032094  12.2729280  -4.3587401
  27.7952094  12.9369280  -4.8417401  26.4512094  12.2419280  -4.7937401
  16.3372094  38.1249280   3.1182599  17.1222094  38.6699280   3.1682599
  16.3552094  37.7579280   2.2342599  17.3072094  10.1989280 -15.9737401
  16.7572094  10.2699280 -16.7547401  18.1612094  10.5299280 -16.2517401
  31.9552094  14.5059280  -2.2397401  31.0162094  14.4659280  -2.4217401
  32.3692094  14.1769280  -3.0377401  14.9892094  24.9799280 -12.3217401
  14.8022094  24.0499280 -12.1967401  15.0202094  25.3409280 -11.4357401
  36.1212094   8.3409280   7.9822599  36.4912094   9.0849280   8.4572599
  36.6462094   8.2799280   7.1842599  20.2212094  22.8379280 -16.1447401
  20.6172094  23.1129280 -16.9707401  19.7892094  22.0089280 -16.3497401
  14.3982094  16.4419280 -13.9997401  13.8292094  17.1939280 -13.8347401
  15.1562094  16.5849280 -13.4337401  37.3032094  16.6009280  -7.9637401
  37.3802094  15.6869280  -8.2387401  36.4812094  16.8999280  -8.3517401
  28.2522094  18.0759280 -17.3717401  28.7202094  17.4529280 -16.8167401
  28.7322094  18.0669280 -18.2007401  12.0822094  27.2889280 -12.8947401
  12.4792094  28.1339280 -12.6817401  12.5962094  26.9619280 -13.6327401
   8.0652094  37.5689280 -18.1687401   8.3652094  38.0809280 -18.9197401
   8.2252094  36.6589280 -18.4187401  23.3392094  25.2709280 -12.4727401
  22.6342094  24.9769280 -13.0507401  22.8972094  25.5129280 -11.6587401
  22.6302094   8.5969280  -6.1567401  23.2952094   7.9469280  -5.9277401
  22.7752094   9.3159280  -5.5427401  31.2142094  27.8159280   2.0242599
  31.4722094  26.9319280   2.2862599  30.3592094  27.9479280   2.4352599
  21.5832094  26.6309280  -8.6457401  21.5582094  26.5789280  -7.6907401
  21.4742094  25.7249280  -8.9377401  21.8202094  31.5789280  -9.2197401
  22.0082094  32.0439280 -10.0357401  21.9432094  30.6549280  -9.4367401
  16.9032094  25.6999280 -18.7417401  17.6682094  25.3249280 -19.1777401
  17.2652094  26.1969280 -18.0077401  16.8302094  36.2629280   5.5862599
  16.6442094  36.0129280   4.6812599  17.5772094  36.8579280   5.5222599
  21.5742094  29.3709280 -18.3347401  20.7042094  29.6559280 -18.6137401
  22.0362094  29.1769280 -19.1497401  27.0152094  24.1849280  -6.2987401
  27.7742094  24.1369280  -5.7177401  26.4812094  23.4269280  -6.0597401
  35.6202094   9.7529280  -1.6137401  35.5632094   8.8289280  -1.3697401
  35.5662094  10.2239280  -0.7817401  34.1172094  20.3439280 -17.5247401
  34.1082094  20.9189280 -16.7587401  34.8212094  19.7199280 -17.3497401
  23.0212094  11.7469280 -17.8927401  23.5802094  10.9709280 -17.9307401
  22.6762094  11.8379280 -18.7807401  23.0982094  36.0809280   1.5442599
  22.6482094  35.3829280   1.0682599  22.4852094  36.3349280   2.2332599
  24.8242094  38.5099280   3.2652599  24.6152094  37.8099280   2.6472599
  24.4952094  38.1929280   4.1062599  24.0862094  38.3799280 -13.7077401
  23.9372094  37.6449280 -13.1117401  23.8032094  38.0559280 -14.5627401
  17.0172094  35.6649280 -13.9847401  16.1202094  35.8829280 -14.2387401
  17.5552094  35.9789280 -14.7117401  25.6162094  37.8319280   8.9432599
  25.1302094  37.0139280   8.8402599  25.9172094  37.8199280   9.8522599
   8.3092094  14.4899280  -9.7447401   7.8362094  14.7569280 -10.5327401
   9.1082094  15.0169280  -9.7537401  18.2742094  34.1429280 -12.0607401
  18.0812094  34.6249280 -11.2577401  17.9472094  34.7059280 -12.7627401
  21.1542094  23.9679280 -13.5947401  21.3052094  23.0299280 -13.7087401
  20.5702094  24.2059280 -14.3147401   9.3552094  13.1129280  -7.2957401
   8.8792094  13.4539280  -8.0527401   9.0312094  13.6269280  -6.5567401
  16.9092094  36.5059280 -10.7697401  16.6092094  36.4979280 -11.6777401
  16.3342094  37.1339280 -10.3327401  35.2402094  34.3259280  -7.1807401
  35.4362094  35.1669280  -6.7677401  34.2862094  34.3139280  -7.2607401
  21.0472094  15.1749280 -16.9157401  20.2552094  15.6379280 -17.1917401
  20.7382094  14.5299280 -16.2797401  12.1872094  37.9559280  -1.1417401
  12.3212094  38.1049280  -0.2057401  11.8022094  38.7719280  -1.4617401
  17.6932094  28.3029280 -13.2757401  17.0432094  27.9499280 -13.8827401
  17.1822094  28.8139280 -12.6477401  20.2782094  13.5619280 -14.7217401
  20.8702094  13.5529280 -13.9697401  19.5852094  12.9439280 -14.4887401
   7.2252094  29.9139280 -14.6867401   8.1182094  29.5909280 -14.8027401
   6.6772094  29.2729280 -15.1407401  22.9482094  34.3179280 -14.6397401
  22.8282094  33.5359280 -15.1797401  22.1072094  34.4349280 -14.1967401
  21.4052094  28.7649280  -6.1947401  21.6482094  29.6519280  -6.4607401
  22.2322094  28.3549280  -5.9407401  12.9852094  29.8329280 -12.6207401
  13.6412094  30.2159280 -12.0387401  12.1692094  29.8709280 -12.1217401
  37.1962094  30.3779280  10.4702599  36.5012094  30.4559280  11.1242599
  37.1312094  29.4769280  10.1562599  24.6722094  36.1079280 -11.6457401
  23.8262094  35.7249280 -11.4157401  25.0592094  35.4849280 -12.2607401
   9.4972094  27.2229280 -13.8617401   8.8502094  27.0619280 -13.1737401
  10.3422094  27.0879280 -13.4327401  21.4932094  37.2179280 -12.0137401
  21.9432094  36.5829280 -11.4577401  21.1542094  36.6999280 -12.7437401
  31.5062094  33.1519280  -5.2797401  32.0842094  32.4189280  -5.4877401
  31.7362094  33.8279280  -5.9177401  13.6832094  27.3399280 -17.0057401
  13.0912094  27.9549280 -17.4387401  13.1842094  26.5249280 -16.9507401
  14.4522094  31.5249280 -15.9937401  14.7602094  32.2879280 -16.4817401
  14.8332094  31.6279280 -15.1217401  22.6322094  33.5369280  -5.3717401
  23.4332094  33.6469280  -5.8837401  22.2682094  32.7039280  -5.6717401
  16.3542094  13.8739280 -13.6377401  16.0382094  14.1069280 -14.5107401
  16.6062094  12.9539280 -13.7107401  10.4342094  23.9199280 -16.1757401
  10.8232094  24.5779280 -16.7517401  10.9872094  23.9279280 -15.3947401
  11.3662094  26.2169280 -10.4567401  11.4182094  26.5979280 -11.3327401
  10.7792094  25.4679280 -10.5547401  18.3512094  37.7989280  -5.2867401
  19.1472094  37.4579280  -4.8787401  18.0162094  38.4419280  -4.6607401
  18.4582094  37.8599280 -18.6317401  18.3312094  37.5369280 -19.5237401
  17.9132094  38.6459280 -18.5817401  13.8922094  33.3029280 -12.3617401
  14.5012094  32.8199280 -12.9197401  13.2392094  33.6549280 -12.9667401
   7.9682094  26.2139280 -16.3157401   8.5622094  26.2689280 -15.5667401
   8.4932094  26.5049280 -17.0607401  17.1562094  33.9409280  -7.8707401
  17.2482094  34.6399280  -7.2227401  16.7182094  34.3589280  -8.6127401
  20.0432094  10.4879280  -9.7777401  20.8212094   9.9919280  -9.5217401
  19.8262094  11.0099280  -9.0057401  18.0932094  30.7079280 -17.4407401
  18.0582094  29.8239280 -17.8067401  17.6212094  31.2489280 -18.0737401
   7.8022094  23.1789280 -16.9527401   7.1732094  23.8899280 -16.8337401
   8.6532094  23.5789280 -16.7757401  23.0402094  32.3189280 -11.4467401
  23.1012094  32.2089280 -12.3957401  23.9442094  32.4459280 -11.1607401
  18.8172094  31.6949280  -8.1607401  19.1012094  31.6889280  -9.0747401
  18.1372094  32.3679280  -8.1247401  27.2732094  11.4679280 -17.9677401
  27.6202094  10.7839280 -18.5407401  26.4122094  11.1439280 -17.7027401
  35.3642094  10.8579280   0.7652599  34.5622094  10.6449280   1.2432599
  35.6162094  11.7219280   1.0902599  26.4082094  37.3379280 -10.0787401
  25.8692094  37.7259280  -9.3897401  25.7852094  37.0979280 -10.7647401
  13.9262094  32.6139280  -9.4007401  14.0262094  33.5219280  -9.1157401
  14.0562094  32.6439280 -10.3487401  33.5252094  16.9569280  -4.6787401
  33.1192094  17.8239280  -4.6587401  32.7872094  16.3469280  -4.6857401
  10.2932094  30.3819280 -11.2057401  10.6062094  31.1389280 -10.7097401
   9.3392094  30.4589280 -11.1847401  14.2492094  29.8859280 -10.1087401
  14.4502094  30.6479280  -9.5647401  13.7362094  29.3129280  -9.5387401
  19.2532094  37.3229280  -9.6817401  18.4152094  36.9749280  -9.9877401
  19.7082094  37.5889280 -10.4807401  18.0532094  26.9079280 -16.6217401
  17.8592094  27.8399280 -16.5167401  18.7492094  26.7349280 -15.9867401
  20.8312094   8.8789280 -17.5387401  20.0502094   8.6559280 -18.0447401
  20.8362094   9.8359280 -17.5127401  10.3612094   9.0189280 -14.8117401
  11.3162094   9.0859280 -14.8177401  10.0652094   9.8439280 -14.4277401
  16.6082094  29.8909280 -11.4117401  16.0042094  29.9179280 -10.6697401
  17.3982094  30.3289280 -11.0937401  36.0422094  32.3489280  -8.9237401
  35.3202094  31.7259280  -9.0137401  35.7332094  32.9829280  -8.2767401
  32.6512094  33.6069280 -10.8027401  31.7642094  33.8549280 -11.0617401
  33.0882094  33.3859280 -11.6257401  31.6632094  29.2639280  -0.3617401
  32.5072094  29.5279280  -0.7287401  31.8892094  28.6719280   0.3562599
  20.1382094   9.7409280  -6.8507401  20.7612094   9.0409280  -6.6537401
  19.2942094   9.3999280  -6.5557401  37.0302094  35.3319280 -10.4367401
  36.4242094  34.6339280 -10.6897401  37.6192094  34.9199280  -9.8047401
  20.4612094  34.4569280 -13.8217401  20.2652094  34.2909280 -12.8997401
  19.7002094  34.1199280 -14.2937401  21.1552094  31.6319280  -6.6347401
  20.2482094  31.5539280  -6.9327401  21.6622094  31.7479280  -7.4377401
  36.0062094  37.3989280   0.1622599  36.5372094  37.2339280   0.9412599
  35.1042094  37.2749280   0.4562599  21.6882094  21.2879280 -13.5137401
  21.5602094  21.1099280 -12.5817401  20.8052094  21.2769280 -13.8837401
  18.0832094  28.1859280  -9.4487401  17.2912094  28.2429280  -8.9147401
  18.7972094  28.3689280  -8.8377401  26.2132094  23.1339280 -13.7797401
  26.3662094  23.9769280 -13.3537401  26.0092094  22.5359280 -13.0607401
  13.9562094  36.9089280  -5.1527401  14.5472094  37.6419280  -4.9787401
  13.1512094  37.1339280  -4.6867401  34.5402094   8.7459280  -6.5527401
  34.6972094   8.1089280  -5.8557401  35.1242094   9.4759280  -6.3467401
  19.3002094  26.7849280 -11.6487401  18.9322094  27.0129280 -10.7947401
  18.7522094  27.2539280 -12.2787401  31.8502094  28.0109280  -6.9007401
  32.0922094  27.3019280  -6.3057401  31.3782094  27.5769280  -7.6117401
   8.6412094  38.1469280  -3.4927401   8.6202094  39.0979280  -3.3817401
   9.4722094  37.9759280  -3.9357401  32.4072094  23.3019280 -18.0327401
  32.5052094  22.5219280 -18.5797401  31.6242094  23.7369280 -18.3737401
  26.0552094  36.0459280 -16.0367401  26.9142094  35.7639280 -15.7237401
  25.4402094  35.7129280 -15.3837401  15.5452094  12.6139280 -17.5257401
  15.6362094  13.2569280 -16.8227401  14.7242094  12.1599280 -17.3317401
  18.3892094  37.1989280 -15.9167401  18.3992094  38.0299280 -15.4407401
  18.7922094  37.4019280 -16.7617401  17.3982094  36.8699280  -7.4237401
  18.1952094  36.7319280  -7.9357401  17.7102094  37.0399280  -6.5347401
   8.8682094  36.8859280 -11.8037401   9.5372094  36.3769280 -12.2597401
   8.0832094  36.3399280 -11.8417401  33.1112094  31.1969280  -6.1817401
  32.9152094  31.1799280  -7.1187401  33.2692094  30.2819280  -5.9517401
  26.4972094  35.1129280  -5.3537401  26.7982094  35.3109280  -4.4667401
  26.5492094  34.1589280  -5.4177401  10.5412094  33.1449280 -10.3197401
  10.9432094  33.9809280 -10.0847401   9.7052094  33.3849280 -10.7207401
   8.6002094  35.1909280 -18.9897401   9.3762094  35.5039280 -19.4547401
   8.4222094  34.3319280 -19.3717401  36.7962094  36.3039280  -4.0627401
  37.2922094  35.5699280  -4.4267401  37.4522094  36.9829280  -3.9047401
  29.5532094  23.0659280 -10.6977401  28.9272094  23.1019280  -9.9747401
  30.3252094  23.5279280 -10.3697401  20.1432094  29.8019280 -13.0217401
  20.6732094  30.2419280 -13.6867401  19.5902094  29.1969280 -13.5167401
  10.6282094  14.6169280 -17.4807401  11.1902094  15.2839280 -17.8757401
  11.1632094  14.2349280 -16.7847401  24.1992094  32.0339280 -19.2867401
  24.6542094  32.8039280 -18.9457401  23.3282094  32.3539280 -19.5227401
  25.4462094  21.0339280 -11.9497401  24.8942094  20.4059280 -12.4157401
  24.8462094  21.4859280 -11.3567401   7.3242094  11.9949280 -13.5487401
   7.1792094  11.0809280 -13.7907401   7.2602094  12.0029280 -12.5937401
  27.0912094   8.7269280   6.9292599  26.4942094   8.4889280   7.6382599
  27.4832094   9.5529280   7.2122599  33.5632094  31.5839280   2.7612599
  33.0942094  32.2769280   2.2972599  34.4292094  31.5659280   2.3542599
  11.9352094  34.8659280 -17.3047401  12.0182094  34.1449280 -16.6807401
  11.1152094  35.2969280 -17.0667401  30.5592094  37.7899280  -2.4147401
  30.4952094  36.8349280  -2.3997401  30.1822094  38.0419280  -3.2567401
  12.7052094  29.2999280 -18.7517401  11.8002094  29.3389280 -19.0617401
  13.0562094  30.1729280 -18.9257401  30.5282094  33.8039280   6.8832599
  31.0612094  34.2209280   6.2052599  29.8312094  34.4349280   7.0612599
  28.2872094  35.6329280   6.8922599  27.9392094  35.7749280   6.0122599
  28.5372094  36.5059280   7.1952599  21.8852094  34.2199280   0.2572599
  22.0152094  34.2299280  -0.6917401  21.8242094  33.2919280   0.4812599
  18.8452094  37.9239280   5.7372599  18.7072094  38.7119280   6.2632599
  19.7812094  37.7409280   5.8202599  31.7082094  25.4369280   3.0032599
  32.3082094  24.7429280   3.2762599  30.8802094  25.2229280   3.4322599
  21.7892094  37.2399280   4.1242599  22.3362094  36.7989280   4.7752599
  21.8362094  38.1659280   4.3592599  24.4232094  34.2759280   4.8442599
  25.1792094  34.1929280   4.2632599  23.8312094  33.5759280   4.5692599
  23.5702094  33.4639280  -2.8627401  23.1682094  33.4149280  -3.7297401
  23.8812094  34.3659280  -2.7927401  15.9202094  33.7219280 -16.6017401
  16.6402094  33.7919280 -17.2277401  15.4802094  34.5709280 -16.6467401
  33.9582094  12.1009280   3.3412599  33.9602094  11.2729280   3.8212599
  34.5422094  12.6699280   3.8412599  18.5252094  37.3879280   8.5122599
  17.5752094  37.3819280   8.3942599  18.8782094  37.2329280   7.6362599
  12.0562094  30.4419280 -14.8927401  12.6712094  30.7729280 -15.5477401
  12.5752094  30.3709280 -14.0907401   8.3712094  32.3039280 -17.1037401
   8.8912094  31.8079280 -17.7357401   8.8092094  32.1579280 -16.2657401
  28.8332094  34.2939280  -0.1377401  29.0712094  33.9249280  -0.9877401
  28.3252094  33.6029280   0.2892599  33.6882094  31.8459280 -15.4957401
  34.4552094  31.7319280 -16.0567401  33.3402094  32.7039280 -15.7367401
  19.2942094  36.7729280   2.7662599  20.0502094  36.7839280   3.3532599
  19.1012094  37.6969280   2.6062599  25.6742094  16.4639280 -17.7787401
  26.3872094  16.8179280 -17.2477401  25.2382094  17.2359280 -18.1407401
  21.6402094  29.3459280 -15.6077401  21.5552094  29.2029280 -16.5507401
  22.2102094  28.6379280 -15.3087401  14.3272094  35.9829280  -1.7017401
  14.0162094  35.7119280  -2.5657401  13.7282094  36.6819280  -1.4397401
  32.2812094  11.4489280   6.0182599  31.9472094  11.1299280   5.1802599
  32.8242094  10.7329280   6.3482599  22.9852094  37.1589280 -16.1327401
  22.8492094  36.2329280 -16.3327401  22.3172094  37.6159280 -16.6437401
  16.2732094   9.6119280 -18.2107401  15.5892094   8.9419280 -18.2347401
  15.8602094  10.3899280 -18.5837401  15.2202094  37.6039280  -8.8487401
  15.7992094  37.2819280  -8.1587401  14.6982094  38.2849280  -8.4247401
  21.8582094  16.2319280 -14.0307401  22.5502094  16.1109280 -14.6807401
  21.5872094  15.3429280 -13.8017401  19.4302094  14.7819280 -11.5087401
  20.2512094  14.3549280 -11.7517401  18.7642094  14.3379280 -12.0337401
  32.1482094  23.5529280 -12.9707401  31.2592094  23.7799280 -13.2447401
  32.6792094  24.3059280 -13.2287401  26.5642094  15.9819280  -6.5937401
  26.7512094  16.4149280  -7.4267401  26.1672094  16.6639280  -6.0517401
  37.1262094  21.3689280   0.7712599  36.4282094  21.9849280   0.5472599
  36.7362094  20.5059280   0.6322599  30.6242094  16.5359280  -4.7857401
  30.2502094  16.9039280  -5.5867401  30.2582094  15.6529280  -4.7337401
  34.6662094  12.4299280  -8.7327401  34.5242094  12.7299280  -9.6297401
  34.9012094  11.5059280  -8.8217401  31.0292094  16.3469280  -8.2527401
  30.4522094  16.9209280  -8.7557401  31.6902094  16.0599280  -8.8827401
  31.3272094   9.7859280  -8.4437401  30.4112094   9.9049280  -8.1937401
  31.2972094   9.1779280  -9.1817401  26.5752094  20.4599280 -17.6777401
  25.6322094  20.5549280 -17.8127401  26.7482094  19.5329280 -17.8447401
  25.8102094  13.3259280  -6.8777401  26.3802094  12.9189280  -7.5307401
  26.1842094  14.1969280  -6.7417401  35.4082094  31.7589280  -4.5177401
  34.7512094  31.8889280  -5.2007401  36.2232094  31.6009280  -4.9957401
  34.9482094  11.2209280 -15.4367401  35.4032094  10.4539280 -15.7847401
  34.2282094  11.3709280 -16.0487401  23.0572094  15.4529280 -18.7257401
  22.3902094  15.2879280 -18.0587401  23.6442094  16.0929280 -18.3247401
  33.1272094  13.8719280  -4.6177401  33.3462094  14.2749280  -5.4577401
  32.9502094  12.9559280  -4.8297401  32.6382094  15.4059280 -13.8867401
  32.0732094  14.6429280 -14.0077401  32.9512094  15.6149280 -14.7677401
  25.6532094  32.2399280 -10.1977401  26.0252094  33.0519280 -10.5397401
  26.1022094  31.5469280 -10.6817401  23.8952094  15.4419280 -15.4997401
  24.3842094  15.9509280 -16.1467401  23.9722094  14.5359280 -15.7997401
  32.4842094  14.0529280   0.3532599  33.3592094  13.7179280   0.1572599
  32.1092094  14.2599280  -0.5027401  12.6182094  17.3609280  -6.0397401
  11.7322094  17.2799280  -5.6877401  12.5942094  18.1589280  -6.5687401
  36.7202094   9.1359280 -16.0097401  37.3832094   9.1989280 -16.6967401
  36.3302094   8.2699280 -16.1317401  26.3082094  19.7569280  -5.5497401
  25.9182094  19.8349280  -6.4207401  25.9502094  20.4959280  -5.0587401
  30.6382094  25.0499280  -1.4657401  30.1972094  25.6819280  -2.0337401
  30.0302094  24.9159280  -0.7387401   8.4302094  33.8179280  -8.2967401
   9.0712094  33.2349280  -8.7037401   7.6282094  33.2979280  -8.2487401
   7.7462094  11.8729280 -17.2797401   8.0912094  12.3779280 -18.0157401
   6.8072094  11.8059280 -17.4537401  32.6402094  31.4369280 -13.0387401
  33.3512094  31.0279280 -12.5447401  33.0132094  31.6009280 -13.9047401
  27.0162094  20.5979280 -14.5457401  27.4752094  20.7579280 -13.7217401
  26.7422094  21.4659280 -14.8407401  32.7482094  19.5679280  -3.9107401
  32.3062094  19.0329280  -3.2517401  32.0462094  20.0779280  -4.3157401
   8.8832094  22.9989280 -13.7317401   8.2612094  22.9489280 -14.4587401
   8.9492094  22.0999280 -13.4107401  33.9302094  12.0499280  -1.5237401
  33.6532094  12.5189280  -2.3107401  33.2342094  11.4129280  -1.3657401
  28.8132094  27.9229280 -18.1827401  29.5912094  27.5189280 -17.7997401
  28.5732094  28.6149280 -17.5667401  36.4052094  32.2019280 -13.5477401
  36.5532094  32.7549280 -14.3147401  36.6182094  31.3169280 -13.8447401
  28.4542094   9.1919280 -10.8027401  28.5872094   9.5359280  -9.9197401
  27.7792094   8.5209280 -10.6987401  34.2082094   9.0509280   3.9702599
  33.2992094   8.8089280   3.7912599  34.6462094   8.2199280   4.1542599
  34.2422094  28.7869280  -5.8527401  33.3932094  28.5019280  -6.1897401
  34.6202094  28.0009280  -5.4587401  30.5502094  13.4809280  -7.5707401
  30.9522094  14.3169280  -7.8087401  31.2912094  12.9009280  -7.3927401
  32.1632094   9.4649280   0.7272599  31.8602094   9.8329280  -0.1027401
  31.6632094   9.9339280   1.3952599  29.7192094  32.3489280  -3.1167401
  30.5072094  32.2619280  -2.5807401  30.0462094  32.5029280  -4.0027401
  33.5092094  15.9289280   4.5562599  33.4892094  15.1889280   5.1622599
  34.2922094  16.4209280   4.8042599   7.3612094  20.2689280  -7.7797401
   7.6282094  20.0409280  -6.8897401   8.0872094  20.7889280  -8.1227401
  32.9242094  27.5819280 -11.2057401  32.0372094  27.5639280 -10.8467401
  33.3742094  26.8599280 -10.7687401  23.8412094  18.0049280 -12.2857401
  23.4732094  17.5379280 -13.0367401  24.7452094  17.6969280 -12.2307401
  25.5302094  34.1829280 -13.3427401  26.0532094  33.4359280 -13.6347401
  24.7842094  34.2019280 -13.9417401  11.9802094  34.2489280 -14.1377401
  11.5402094  35.0729280 -13.9257401  11.2672094  33.6309280 -14.2977401
  30.4292094  31.6019280  -8.8937401  30.1582094  32.1609280  -9.6227401
  29.7382094  30.9429280  -8.8287401  32.9252094  34.9499280  -3.3857401
  32.7272094  34.0549280  -3.6597401  32.0732094  35.3289280  -3.1697401
   7.2182094  14.7709280 -12.0967401   6.6402094  14.3299280 -12.7207401
   7.8962094  15.1729280 -12.6407401  19.2282094  12.2249280 -19.0767401
  18.6362094  12.9479280 -19.2837401  19.9032094  12.2659280 -19.7547401
  31.6472094  10.5229280  -1.8197401  31.8852094  10.6199280  -2.7417401
  31.1072094   9.7329280  -1.7927401  34.8612094  15.6659280   9.1072599
  35.3802094  16.4399280   8.8872599  34.7012094  15.2359280   8.2672599
  28.4212094  10.1659280  -8.3357401  28.2442094  10.1839280  -7.3957401
  28.2852094  11.0689280  -8.6227401  29.3042094  14.6599280  -2.9247401
  28.7632094  15.2539280  -2.4047401  28.8682094  14.6199280  -3.7757401
  35.1822094   9.9799280 -10.0897401  34.8562094   9.2099280  -9.6247401
  34.7732094   9.9299280 -10.9537401  28.7592094  24.5239280   0.0752599
  28.4462094  24.9909280   0.8492599  29.2152094  23.7579280   0.4242599
  31.7762094  21.2399280  -1.3267401  32.5182094  20.7279280  -1.6497401
  32.1762094  21.9549280  -0.8307401  37.0542094  30.9209280   4.3332599
  37.7072094  30.4469280   3.8192599  36.3102094  31.0249280   3.7392599
  30.1592094  38.2069280 -12.7057401  29.5052094  38.5439280 -12.0937401
  30.8312094  37.8149280 -12.1467401  37.2192094  17.7919280 -12.0387401
  36.2832094  17.6899280 -11.8667401  37.3592094  17.3469280 -12.8737401
  29.4442094  20.7979280  -7.9027401  28.9392094  21.5899280  -8.0867401
  29.3952094  20.2889280  -8.7117401  35.1812094  17.3709280  -0.6727401
  36.0722094  17.2229280  -0.3537401  34.6292094  16.8439280  -0.0947401
  33.1222094  29.5349280   9.5502599  32.6172094  29.4539280   8.7422599
  33.6242094  30.3429280   9.4402599   9.8242094  17.3629280 -10.7517401
  10.2472094  17.5649280  -9.9167401   8.9582094  17.7639280 -10.6847401
  34.6912094  14.3939280  -6.7097401  34.8222094  13.5689280  -7.1777401
  34.6202094  15.0529280  -7.4007401  13.2532094  11.9409280 -16.0507401
  12.9002094  12.8049280 -15.8367401  12.5632094  11.5219280 -16.5657401
  27.3502094  11.6849280 -12.2117401  27.9762094  11.1189280 -11.7587401
  26.6162094  11.7659280 -11.6037401  24.0352094  38.0979280  -8.7657401
  23.5082094  37.5119280  -8.2227401  23.4662094  38.3209280  -9.5017401
  13.0742094  18.7169280 -14.0217401  12.8232094  19.2729280 -13.2837401
  13.0602094  19.3019280 -14.7787401  29.2382094  36.2839280   1.9922599
  29.4792094  35.7489280   1.2362599  29.5952094  37.1509280   1.7962599
  33.1922094  36.8869280   1.1912599  32.5752094  36.3049280   0.7462599
  32.8662094  37.7679280   1.0062599  23.1392094  24.3809280 -18.7107401
  22.2572094  24.0429280 -18.5577401  23.5782094  23.6889280 -19.2057401
  29.3522094  16.2039280 -10.7507401  30.2662094  15.9199280 -10.7827401
  29.3152094  16.9599280 -11.3367401  31.5742094  19.3339280 -12.1477401
  31.8822094  19.7809280 -11.3597401  32.2862094  19.4419280 -12.7787401
  27.6542094  36.0339280  -2.8837401  27.2022094  36.8439280  -2.6457401
  27.1002094  35.3369280  -2.5337401  24.3672094  32.9219280  -7.7917401
  24.3212094  32.5279280  -8.6627401  25.0642094  33.5749280  -7.8597401
  34.2982094  16.3589280  -8.6267401  33.8572094  17.0959280  -8.2037401
  34.4732094  16.6639280  -9.5177401  31.6182094  16.6689280 -19.2197401
  32.1872094  17.2689280 -19.7017401  32.1372094  16.4049280 -18.4597401
  34.8522094  26.2699280   1.0482599  34.1972094  26.3569280   1.7412599
  34.9802094  27.1619280   0.7252599  27.6332094  14.1609280 -13.4347401
  27.8772094  13.3749280 -12.9467401  28.4682094  14.5359280 -13.7177401
  30.2282094  34.1349280 -11.6377401  29.4042094  34.5509280 -11.8907401
  30.2462094  33.3159280 -12.1327401  22.2582094  11.5459280  -7.4127401
  23.1182094  11.1379280  -7.5157401  21.7642094  10.9319280  -6.8687401
   8.3912094  26.7679280 -11.2267401   8.9742094  26.8959280 -10.4777401
   7.6012094  26.3779280 -10.8527401  32.5162094  21.9389280  -7.8047401
  32.2202094  22.6669280  -7.2587401  33.3062094  21.6189280  -7.3687401
  34.2992094  36.2919280  -5.0857401  33.8172094  35.7849280  -4.4327401
  35.1972094  36.3169280  -4.7557401  31.9752094  10.5509280 -13.4867401
  31.3712094   9.8079280 -13.4737401  32.8452094  10.1519280 -13.4817401
  26.6052094  23.6039280  -3.2927401  27.4202094  23.1089280  -3.3797401
  26.8872094  24.4899280  -3.0647401  34.9532094  22.0349280 -15.5387401
  34.9262094  22.2779280 -14.6137401  35.0882094  22.8629280 -16.0007401
  31.6922094  12.2219280 -11.0487401  31.8532094  11.5619280 -11.7227401
  32.5562094  12.3989280 -10.6747401  35.0792094  24.3959280 -17.5717401
  34.2502094  23.9309280 -17.6907401  35.4572094  24.4399280 -18.4497401
  28.6082094  14.3949280  -5.6597401  27.9322094  14.8899280  -6.1227401
  29.2262094  14.1359280  -6.3437401  11.5932094  19.3059280 -18.3377401
  10.8872094  19.8789280 -18.0387401  12.3112094  19.4699280 -17.7257401
  25.1362094  25.6109280  -8.0897401  25.0932094  24.6749280  -8.2867401
  26.0052094  25.7339280  -7.7057401  32.6682094  20.3999280  -9.9797401
  32.3072094  20.9479280  -9.2827401  33.4672094  20.0299280  -9.6047401
  34.4252094  13.4059280 -11.3247401  34.5782094  14.3269280 -11.1117401
  34.7482094  13.3109280 -12.2207401  31.3262094  17.4069280   4.9902599
  30.6502094  16.8659280   4.5832599  32.1082094  16.8549280   4.9902599
  23.9732094  26.8569280 -17.7047401  23.9092094  25.9659280 -18.0487401
  24.6002094  27.2919280 -18.2817401  30.0362094  22.0079280   0.5742599
  30.7482094  21.7069280   0.0092599  29.2942094  21.4489280   0.3432599
  30.4462094   8.9049280  -5.1607401  30.8912094   8.1979280  -5.6277401
  31.1362094   9.5409280  -4.9737401  15.7012094  27.3609280 -14.6917401
  15.6322094  26.4309280 -14.4757401  15.0612094  27.4929280 -15.3907401
   8.1022094  20.6339280 -15.8727401   7.9542094  21.2959280 -16.5477401
   7.4322094  19.9699280 -16.0367401  23.4492094  14.0989280  -7.5807401
  24.3432094  13.7889280  -7.4407401  22.9142094  13.3059280  -7.5597401
  32.4482094  10.9579280  -4.2357401  33.3472094  10.6339280  -4.1717401
  32.3002094  11.0709280  -5.1747401  33.2242094  18.2059280  -6.9647401
  33.5402094  17.5379280  -6.3557401  32.2872094  18.2739280  -6.7807401
  30.2082094  16.8699280 -15.8807401  30.4022094  17.8059280 -15.9357401
  30.6252094  16.5859280 -15.0667401  25.5842094  10.2029280 -14.8787401
  25.3592094   9.4679280 -14.3087401  26.5402094  10.2429280 -14.8517401
  35.1762094  17.6489280   6.0332599  35.7672094  17.6999280   6.7842599
  34.6632094  18.4559280   6.0762599  36.5952094  28.9009280  -6.9027401
  35.7032094  28.9089280  -6.5557401  36.4832094  28.8869280  -7.8527401
  27.0972094  16.8029280  -9.3197401  27.0972094  17.6869280  -9.6867401
  27.8012094  16.3509280  -9.7827401  29.5302094  26.2589280  -5.6577401
  29.6662094  26.9929280  -5.0597401  28.6832094  26.4359280  -6.0677401
   8.1662094  20.2199280 -12.9197401   7.9932094  20.0049280 -13.8367401
   8.0252094  19.3979280 -12.4497401  24.7702094  10.5529280  -7.6867401
  24.7232094  10.3609280  -6.7497401  24.6292094   9.7079280  -8.1117401
  30.2752094  14.4809280 -17.0997401  30.3052094  15.3989280 -16.8307401
  29.7642094  14.4839280 -17.9087401  26.6172094  37.4539280 -18.5167401
  27.5742094  37.4459280 -18.5227401  26.3772094  36.9339280 -17.7497401
  30.2802094  13.0169280   7.2312599  30.9802094  12.5889280   6.7392599
  29.6432094  13.2769280   6.5662599  36.5902094  29.7389280  -2.5827401
  36.3062094  30.5509280  -3.0027401  37.4792094  29.9239280  -2.2807401
  37.1872094  11.7479280 -10.6507401  36.4752094  11.1229280 -10.5137401
  36.8112094  12.5959280 -10.4167401  15.1102094   9.3649280 -12.3247401
  15.5732094   9.8399280 -11.6347401  14.7992094  10.0479280 -12.9187401
  33.2502094  14.6379280 -16.5127401  33.9632094  14.9119280 -17.0897401
  32.6632094  14.1369280 -17.0787401  32.5992094  29.2509280 -17.8537401
  32.6872094  29.4359280 -18.7887401  33.4112094  28.8009280 -17.6207401
  35.5532094  13.9029280  -0.0847401  35.9912094  14.4289280  -0.7537401
  35.2472094  13.1259280  -0.5527401  28.1292094  12.8199280  -1.6307401
  27.7692094  12.3419280  -2.3777401  28.7112094  13.4719280  -2.0217401
  36.5922094  18.2129280 -18.1697401  36.9702094  18.0529280 -19.0337401
  36.0752094  17.4279280 -17.9847401  36.3632094  18.8139280   3.0992599
  35.4712094  19.0239280   2.8222599  36.2812094  18.5979280   4.0282599
  34.7032094  20.0849280  -0.5587401  34.7722094  19.1319280  -0.6187401
  34.7922094  20.2739280   0.3752599  35.3062094  21.5119280   4.5982599
  35.9492094  21.1119280   5.1852599  34.6402094  21.8729280   5.1832599
  31.3002094  10.1709280   8.7292599  31.9682094   9.8659280   8.1152599
  31.5932094  11.0449280   8.9872599  28.9512094  21.7969280 -17.0017401
  28.9612094  22.1429280 -17.8937401  28.1432094  21.2859280 -16.9517401
  35.2182094  34.2059280 -19.1847401  34.8392094  34.8199280 -19.8147401
  35.9782094  34.6669280 -18.8297401  33.7312094  14.0149280   6.5532599
  33.0082094  13.4019280   6.4202599  34.5102094  13.5299280   6.2802599
  35.9472094  36.6199280 -16.3377401  36.0632094  35.7209280 -16.0297401
  36.6652094  36.7579280 -16.9547401  29.6202094  32.9069280 -18.5667401
  28.8442094  32.8349280 -18.0107401  29.6932094  32.0509280 -18.9887401
  34.1962094  16.1899280   1.5242599  34.3512094  16.0029280   2.4502599
  33.3622094  15.7609280   1.3302599  26.7442094  27.6949280 -14.5937401
  27.0152094  26.9369280 -15.1107401  26.7592094  28.4249280 -15.2127401
  34.1272094  19.0069280 -13.8377401  34.4842094  19.8719280 -13.6397401
  34.7302094  18.6409280 -14.4857401  29.3742094  15.7849280   3.8482599
  29.8202094  15.6659280   3.0102599  29.1722094  14.8959280   4.1412599
  30.2422094  35.2579280  -3.4297401  29.3052094  35.2559280  -3.2357401
  30.3652094  34.5179280  -4.0247401  33.2702094  23.4119280   3.5262599
  34.0172094  23.0049280   3.0872599  33.3552094  23.1449280   4.4412599
   8.9012094  13.1839280 -15.1587401   8.5802094  12.7669280 -15.9587401
   8.2732094  12.9249280 -14.4847401  33.8992094  37.3299280 -18.1617401
  34.7192094  36.9789280 -17.8147401  33.5192094  37.8189280 -17.4317401
  31.4432094  31.9789280  -1.0177401  31.4632094  31.1929280  -0.4707401
  32.3362094  32.0599280  -1.3537401  34.5962094  36.4799280   8.9722599
  34.0532094  37.0109280   9.5562599  35.2562094  37.0889280   8.6402599
  31.3632094  26.9449280 -17.6197401  31.7212094  27.8099280 -17.8207401
  32.0152094  26.5429280 -17.0447401  32.4322094  23.5719280  -0.1467401
  31.8682094  23.7759280   0.6002599  32.2152094  24.2369280  -0.7997401
  35.0762094  11.3749280 -18.5967401  34.3262094  10.8019280 -18.4357401
  34.7582094  12.2519280 -18.3857401  36.4052094  20.1459280   6.8952599
  36.5732094  19.5899280   7.6562599  36.7632094  20.9999280   7.1382599
  27.2552094  15.0379280   1.2912599  27.5982094  14.1759280   1.0562599
  28.0342094  15.5729280   1.4432599  36.6012094  11.6019280  -3.3137401
  36.4242094  10.8209280  -2.7887401  36.0942094  12.2949280  -2.8897401
  37.0372094  11.0299280   9.3222599  36.4992094  11.3599280  10.0412599
  36.9072094  11.6619280   8.6152599  31.1882094  13.1429280 -14.3147401
  31.0722094  12.9589280 -15.2467401  31.4352094  12.3009280 -13.9327401
  35.8852094  13.4169280   4.5872599  36.4162094  14.1009280   4.9962599
  36.4582094  12.6509280   4.5622599  27.1902094  17.6399280   4.0232599
  27.9882094  17.1119280   4.0702599  26.4912094  17.0409280   4.2872599
  30.7932094  21.1569280  -5.1927401  30.4942094  21.0639280  -6.0967401
  31.0532094  22.0749280  -5.1187401  30.2842094  15.5299280   1.3462599
  30.7592094  16.2259280   0.8922599  30.7702094  14.7319280   1.1362599
  28.4702094  12.6489280  -9.1487401  29.3582094  12.8669280  -8.8657401
  28.1442094  13.4529280  -9.5547401  12.4652094  19.9919280 -11.8377401
  12.0322094  19.3589280 -11.2637401  12.7622094  20.6849280 -11.2487401
  13.2392094  14.4749280  -6.3957401  13.9492094  14.3619280  -7.0277401
  13.1672094  15.4219280  -6.2817401  34.1562094  34.5589280   2.7892599
  35.0782094  34.6499280   3.0332599  33.9932094  35.2879280   2.1912599
  29.1942094  22.3829280  -3.2677401  29.8352094  21.8149280  -3.6957401
  29.6772094  22.7869280  -2.5467401  31.3012094  12.1519280   1.7372599
  31.7752094  12.9119280   1.3982599  31.7292094  11.9549280   2.5702599
  26.5402094  17.5309280   0.5792599  26.1572094  18.3339280   0.9322599
  26.2992094  16.8519280   1.2102599  24.4032094  10.6779280  -5.1227401
  24.6442094  10.1199280  -4.3827401  24.1832094  11.5209280  -4.7257401
  34.6612094  16.7319280 -12.0087401  34.2662094  17.4919280 -12.4367401
  34.6402094  16.0449280 -12.6747401  11.8262094  16.6419280 -19.0247401
  11.7372094  17.5779280 -18.8457401  12.7672094  16.4759280 -18.9697401
   9.6212094  37.8839280   1.9362599   8.9542094  37.1989280   1.9182599
   9.3312094  38.5189280   1.2812599  34.3222094  20.8179280   2.0462599
  33.5412094  20.3309280   2.3092599  34.8922094  20.7919280   2.8142599
  10.9732094  11.5749280 -13.8447401  11.9272094  11.6519280 -13.8117401
  10.6902094  12.3199280 -14.3747401  29.4972094  18.7919280   2.3782599
  28.9082094  19.5419280   2.2882599  28.9502094  18.1019280   2.7552599
  35.8002094  28.9889280   0.9952599  36.3902094  29.2989280   1.6812599
  35.6942094  29.7399280   0.4112599  25.7032094  34.1369280 -18.6687401
  25.8002094  35.0389280 -18.3627401  26.3842094  34.0359280 -19.3347401
  31.5072094  23.7539280  -5.9527401  30.9252094  24.4829280  -6.1657401
  32.0692094  24.0919280  -5.2547401  29.7342094  24.0129280 -15.0977401
  29.0762094  24.5239280 -15.5697401  29.6772094  23.1369280 -15.4787401
  26.7412094   8.4949280  -2.1487401  27.0392094   8.7849280  -3.0107401
  25.8672094   8.8729280  -2.0567401  31.7652094  34.6199280   0.3822599
  32.4992094  34.1699280  -0.0367401  30.9892094  34.2789280  -0.0637401
  29.1582094  38.1669280 -15.0957401  28.6792094  38.9889280 -14.9997401
  29.4802094  37.9719280 -14.2157401  26.9652094  32.4339280  -5.8257401
  27.4652094  32.5769280  -6.6297401  27.5672094  31.9629280  -5.2497401
  23.4242094  11.0289280 -12.3497401  23.6852094  10.1529280 -12.6327401
  24.2442094  11.4559280 -12.1037401  25.0422094  12.0849280 -10.5627401
  25.2092094  13.0149280 -10.4067401  24.8822094  11.7199280  -9.6927401
  27.5162094  32.5439280 -16.5617401  26.7922094  33.0329280 -16.9507401
  27.4372094  32.7059280 -15.6217401  28.8862094   8.4479280   0.0202599
  29.4982094   8.2339280  -0.6847401  28.1432094   8.8569280  -0.4237401
  34.3362094  29.8509280 -11.2597401  34.2042094  30.4349280 -10.5127401
  33.5532094  29.3009280 -11.2767401  28.3012094  10.5469280 -14.6467401
  28.2982094  11.0959280 -13.8617401  28.7482094  11.0759280 -15.3077401
  29.1952094  18.5759280  -3.1657401  29.1702094  18.7549280  -4.1067401
  30.0752094  18.2309280  -3.0107401  23.7962094  26.5269280  -6.0307401
  23.9162094  25.9369280  -6.7747401  24.6342094  26.9799280  -5.9467401
  35.0512094  25.8679280 -10.0247401  34.9342094  25.7339280  -9.0847401
  35.4952094  26.7139280 -10.0927401   8.2202094  34.0399280  -5.4147401
   7.3962094  33.6759280  -5.0927401   8.4182094  33.5279280  -6.1987401
   9.1212094  38.1239280  -0.7437401   9.4342094  37.2199280  -0.7307401
   8.6982094  38.2189280  -1.5977401   9.2672094  36.7699280 -15.8777401
   8.8352094  37.2109280 -16.6087401   9.6542094  37.4799280 -15.3647401
  24.6462094  28.0509280 -12.4527401  23.7582094  27.7059280 -12.3587401
  24.9082094  27.7999280 -13.3387401  32.6892094  33.7909280   9.4002599
  33.5372094  33.3519280   9.3242599  32.2312094  33.5689280   8.5892599
  33.8622094  25.9999280  -5.8267401  33.4662094  26.2199280  -4.9827401
  33.9992094  25.0529280  -5.7867401  27.1192094  31.9829280 -13.9337401
  26.6462094  31.1509280 -13.9167401  28.0332094  31.7419280 -13.7827401
  30.2312094  30.0619280  -5.8947401  29.7562094  30.0459280  -6.7257401
  31.1392094  29.8759280  -6.1337401  28.7132094  35.4599280 -15.4517401
  29.0202094  35.1389280 -16.2997401  28.9882094  36.3769280 -15.4287401
  29.7532094  31.6189280 -13.1367401  29.7012094  30.8349280 -12.5897401
  30.6712094  31.6659280 -13.4037401  32.4162094  11.6829280  -6.9757401
  32.0432094  11.0759280  -7.6147401  33.2722094  11.9149280  -7.3357401
  31.2992094  30.2619280 -15.6507401  31.9442094  30.8849280 -15.3167401
  31.6242094  30.0209280 -16.5177401  32.5102094  24.9559280 -15.6557401
  32.6172094  24.2999280 -16.3447401  31.6762094  24.7339280 -15.2407401
  32.8602094  29.3259280   3.8642599  33.1252094  30.1289280   3.4162599
  32.2152094  28.9269280   3.2812599  35.2592094  23.4789280  -5.2607401
  35.5152094  22.5899280  -5.5047401  35.8932094  24.0419280  -5.7067401
  28.6842094  26.1129280 -10.3947401  27.8742094  26.4009280  -9.9737401
  28.3942094  25.6059280 -11.1527401  28.4962094  29.7339280  -8.4787401
  27.5592094  29.8169280  -8.3017401  28.5432094  29.3579280  -9.3577401
  27.1282094  34.3989280   8.9942599  26.2422094  34.7549280   8.9312599
  27.5692094  34.7109280   8.2042599  29.9552094  27.7479280  -2.0067401
  29.4882094  28.4989280  -2.3747401  30.6132094  28.1349280  -1.4287401
  26.9002094  29.9759280 -11.7947401  26.3052094  29.3079280 -12.1357401
  27.6982094  29.4959280 -11.5757401  30.8912094  26.1839280  -8.8727401
  31.3402094  25.3699280  -9.0997401  30.1402094  26.2159280  -9.4657401
  34.6582094  34.2719280 -12.8787401  34.9452094  33.3689280 -12.7487401
  34.5832094  34.3659280 -13.8287401  34.3412094  33.6589280  -0.5247401
  34.4182094  33.0269280  -1.2387401  35.1302094  34.1959280  -0.5927401
  36.1852094  23.6859280  -2.0017401  35.8552094  23.4799280  -1.1277401
  35.7452094  23.0609280  -2.5777401  32.7032094  10.5769280 -17.1117401
  31.8842094  11.0699280 -17.1567401  32.4662094   9.7549280 -16.6827401
  35.0252094  24.9139280 -14.4247401  34.3522094  24.8809280 -15.1047401
  35.4142094  25.7849280 -14.5137401  25.3492094  19.8839280  -1.2547401
  25.3002094  20.1249280  -0.3297401  26.2152094  20.1809280  -1.5337401
  31.8152094  38.1489280 -16.1207401  30.8682094  38.0359280 -16.0447401
  32.1692094  37.7399280 -15.3307401  31.3422094  36.9049280 -10.7147401
  32.1742094  36.4319280 -10.6997401  30.7112094  36.2919280 -10.3377401
  34.8172094  36.7789280 -11.7997401  34.7542094  35.8269280 -11.8807401
  34.7422094  36.9439280 -10.8597401  33.9052094  31.6729280  -2.2687401
  34.2342094  31.9659280  -3.1187401  33.6282094  30.7689280  -2.4167401
  35.8302094  31.8529280 -17.2537401  36.7342094  32.1579280 -17.1857401
  35.4172094  32.4599280 -17.8677401  25.2892094  37.7699280  -5.5367401
  26.0122094  38.3929280  -5.4687401  25.7082094  36.9389280  -5.7587401
  36.8992094  35.4709280  -1.2337401  36.7382094  35.9349280  -2.0557401
  36.4512094  35.9949280  -0.5707401  32.4902094  34.4459280  -7.6127401
  32.2392094  34.0329280  -8.4387401  31.8642094  35.1619280  -7.5027401
  22.6482094  31.8979280 -16.3497401  23.1312094  31.7159280 -17.1557401
  22.5532094  31.0429280 -15.9297401  20.6982094  36.3549280  -4.0227401
  21.6342094  36.2859280  -3.8357401  20.4512094  35.4859280  -4.3387401
  32.3542094  33.5949280 -17.5747401  31.4432094  33.3039280 -17.5587401
  32.5752094  33.6409280 -18.5047401  28.3412094  35.6019280 -12.8377401
  28.6062094  35.3749280 -13.7287401  28.7232094  36.4659280 -12.6857401
  23.2342094  12.9999280  -3.6147401  23.2682094  12.9459280  -2.6597401
  22.6402094  13.7299280  -3.7917401  10.0672094  35.8989280  -7.1187401
   9.2112094  35.4739280  -7.1707401  10.4552094  35.7659280  -7.9827401
  35.8792094  27.6369280 -15.5237401  36.7472094  27.2589280 -15.6687401
  35.3492094  27.3039280 -16.2477401  34.5072094  27.3259280 -17.8437401
  35.0002094  27.6109280 -18.6137401  34.5342094  26.3699280 -17.8817401
   7.3582094  34.3079280 -15.7437401   7.7902094  33.7659280 -16.4047401
   8.0312094  34.9289280 -15.4657401  29.0942094  28.7009280 -11.0997401
  28.9792094  27.7569280 -10.9967401  29.5992094  28.7949280 -11.9067401
  28.0082094  34.2179280  -7.8397401  27.7912094  34.3809280  -8.7577401
  27.9832094  35.0819280  -7.4297401  34.5442094   9.6159280 -13.1187401
  34.8182094  10.0989280 -13.8987401  35.2012094   8.9269280 -13.0197401
  25.6802094  29.3289280  -8.0457401  25.4772094  28.6989280  -8.7367401
  25.0582094  30.0429280  -8.1807401  34.7802094  37.3589280  -8.9477401
  34.6392094  37.8069280  -8.1137401  35.6892094  37.0629280  -8.9117401
  17.0852094  36.7599280  -1.8177401  17.7352094  36.0589280  -1.8647401
  16.2482094  36.3229280  -1.9757401  36.6922094  18.0449280 -15.4467401
  36.4242094  17.8769280 -16.3497401  37.5262094  17.5849280 -15.3537401
  32.1272094  36.9879280  -6.4917401  32.8552094  36.5019280  -6.1047401
  32.5372094  37.7479280  -6.9037401  33.4482094  29.0119280  -2.8527401
  33.1472094  28.1719280  -3.1987401  34.3392094  28.8399280  -2.5477401
   8.1082094  38.3949280  -9.4377401   8.6062094  37.8339280 -10.0337401
   7.2652094  38.5189280  -9.8737401   7.3162094   8.7149280 -13.2417401
   7.3212094   8.6429280 -14.1967401   7.8612094   7.9869280 -12.9437401
  27.2932094  34.7499280 -10.4287401  27.5702094  34.8049280 -11.3427401
  27.0662094  35.6489280 -10.1917401  30.8252094  37.6199280   7.9882599
  31.0502094  37.0919280   8.7542599  30.9022094  38.5249280   8.2902599
  24.9902094   9.9339280 -17.3707401  25.0052094   9.7439280 -16.4327401
  25.1832094   9.0939280 -17.7887401  28.4722094  29.8769280 -16.1827401
  29.3782094  30.0379280 -15.9197401  28.1162094  30.7469280 -16.3597401
  32.0212094  26.5709280  -3.8557401  32.3052094  25.7109280  -3.5477401
  31.4502094  26.8979280  -3.1607401  33.1272094  31.5129280  -9.2117401
  32.2282094  31.3349280  -8.9367401  33.0652094  32.3149280  -9.7307401
   7.7382094  31.4689280 -10.9997401   7.3732094  31.8739280 -11.7857401
   7.0442094  31.5469280 -10.3447401  26.2812094  33.6919280  -1.7547401
  26.0322094  33.9569280  -0.8697401  25.7062094  32.9529280  -1.9547401
  31.8762094  34.9319280   4.6032599  32.6482094  34.8439280   4.0442599
  31.2082094  34.3939280   4.1772599  26.9762094  35.7489280   3.9072599
  27.7262094  35.5789280   3.3372599  26.7902094  36.6809280   3.7862599
  33.2662094  37.0919280 -14.0587401  33.7052094  37.3819280 -13.2587401
  33.7182094  36.2829280 -14.2997401  29.1862094  35.9829280 -18.3677401
  30.1112094  36.0479280 -18.6047401  28.9152094  35.1249280 -18.6947401
  24.8002094  29.1809280 -16.1617401  24.6022094  28.3299280 -16.5537401
  24.9602094  29.7569280 -16.9087401  35.8902094  31.6719280   0.9232599
  36.7442094  32.0729280   0.7642599  35.2692094  32.2419280   0.4682599
  36.1132094  27.7909280   9.7272599  35.6812094  27.4659280   8.9372599
  36.9322094  27.2989280   9.7732599  36.5202094  28.5429280  -9.7747401
  37.3262094  28.9439280 -10.1007401  35.9002094  28.6309280 -10.4987401
  36.9262094   9.6859280   3.3412599  37.1592094   9.0339280   2.6802599
  35.9842094   9.5709280   3.4702599  36.2872094  34.8679280   6.6002599
  35.7112094  34.9219280   7.3622599  35.7792094  34.3829280   5.9492599
  34.6162094  33.0649280   5.1782599  33.8012094  32.9769280   4.6852599
  34.5552094  32.3989280   5.8632599  33.6392094  26.6789280   4.5942599
  33.7852094  27.5099280   4.1432599  32.7042094  26.5049280   4.4832599
  35.2542094  23.4449280   0.8052599  35.2612094  24.3799280   0.5972599
  34.3762094  23.2819280   1.1482599  37.0932094  36.4689280   2.4802599
  36.5632094  36.8179280   3.1972599  37.2292094  35.5489280   2.7072599
  34.7432094  31.7369280   9.0692599  35.3822094  32.2369280   9.5762599
  35.2462094  31.3729280   8.3412599  33.3042094   9.1129280   7.1532599
  33.0742094   8.5239280   6.4352599  34.0972094   8.7329280   7.5312599
  10.9832094  11.0759280 -17.8497401  10.3462094  11.5339280 -18.3987401
  10.4562094  10.4899280 -17.3077401  36.2652094  30.4459280   7.1082599
  36.9802094  29.9419280   7.4972599  36.6562094  30.8639280   6.3412599
  33.6452094  30.5389280   6.4392599  34.4872094  30.1219280   6.6222599
  33.3232094  30.0939280   5.6542599  31.4572094  37.6509280   5.2772599
  31.4742094  37.3849280   6.1962599  31.6572094  36.8509280   4.7922599
  27.9252094  12.3379280   0.8612599  28.0502094  12.3879280  -0.0857401
  28.7962094  12.4889280   1.2272599  36.2072094  37.2489280   4.9472599
  37.0492094  37.5999280   5.2392599  36.0332094  36.5179280   5.5402599
  33.3452094  34.8399280 -15.4767401  32.8542094  35.6489280 -15.3337401
  32.9972094  34.4909280 -16.2967401  24.2272094  36.8479280   5.4322599
  24.7682094  36.9419280   6.2162599  24.3622094  35.9419280   5.1552599
  30.8072094  33.3889280   2.6902599  30.0392094  33.0349280   2.2412599
  31.3372094  33.7739280   1.9922599  28.4402094  31.9529280   1.4022599
  27.7052094  31.5179280   0.9712599  28.0432094  32.4289280   2.1312599
  10.3602094  38.1339280   4.4792599  10.0822094  37.9359280   3.5852599
  10.7962094  38.9839280   4.4132599  31.6092094  17.8519280   0.7302599
  32.4402094  18.0669280   1.1542599  30.9412094  18.1929280   1.3252599
   9.8912094  29.5969280 -18.8507401   9.0502094  30.0549280 -18.8417401
  10.0772094  29.4569280 -19.7797401  25.7612094  35.0089280   0.5932599
  26.5842094  35.4419280   0.8192599  25.1222094  35.3739280   1.2042599
  31.1452094  10.1029280   3.9762599  30.2712094  10.3819280   4.2512599
  31.1882094   9.1769280   4.2152599  30.7802094  28.8819280 -13.2827401
  31.6422094  28.4829280 -13.1637401  30.8112094  29.2659280 -14.1587401
  28.2062094  30.3919280  -2.0397401  27.8282094  30.4969280  -1.1657401
  28.6442094  31.2249280  -2.2137401  36.5452094  14.9019280   2.3562599
  36.1562094  14.6069280   1.5332599  36.2132094  14.2889280   3.0122599
  31.7532094  36.3489280  10.2022599  32.1152094  35.5039280   9.9362599
  32.3692094  36.6789280  10.8562599  29.5032094   9.0389280 -19.3657401
  30.0362094   8.7619280 -18.6207401  30.1392094   9.2529280 -20.0487401
  23.2152094  37.6959280  -0.7957401  22.2782094  37.6089280  -0.9727401
  23.3232094  37.3609280   0.0942599   8.0562094  14.6529280 -18.4807401
   8.3852094  15.1069280 -19.2567401   8.8002094  14.6339280 -17.8797401
  20.3012094  37.6829280  -1.2817401  20.6082094  37.0939280  -1.9707401
  19.5322094  38.1109280  -1.6577401  28.4752094  13.6989280  40.5452599
  27.7282094  13.3899280  41.0582599  28.1072094  14.3619280  39.9612599
  28.3122094   9.5849280  32.3492599  28.1522094   8.7359280  31.9372599
  28.8222094  10.0739280  31.7032599  36.4952094  27.3959280  25.8162599
  36.8352094  27.9689280  26.5042599  37.0852094  27.5339280  25.0752599
   9.7202094  15.5989280  39.4612599  10.4612094  16.0109280  39.9072599
  10.0502094  15.3959280  38.5862599  20.1182094  33.9879280  24.8122599
  21.0512094  33.7959280  24.7232599  19.7112094  33.5569280  24.0612599
  35.2242094  13.9989280  16.1632599  34.2842094  14.1189280  16.0272599
  35.4032094  13.1149280  15.8442599  25.6192094  13.2929280  35.6602599
  25.3022094  12.9499280  36.4952599  25.5592094  12.5519280  35.0572599
  35.9872094  18.3749280  26.3872599  35.0482094  18.4359280  26.2132599
  36.0442094  18.0319280  27.2792599  16.8422094  32.4389280  40.8002599
  16.2352094  33.0299280  40.3552599  17.7102094  32.7829280  40.5892599
  11.6192094  37.2219280  36.8482599  12.0852094  36.5449280  36.3572599
  10.9712094  37.5629280  36.2312599  24.1652094  22.8169280  38.9992599
  25.0072094  22.4189280  39.2202599  24.3282094  23.2819280  38.1782599
  19.4642094  17.5119280  37.5742599  19.0632094  18.2629280  37.1382599
  20.1732094  17.8879280  38.0962599  14.3952094  16.6389280  40.4662599
  14.5472094  17.1779280  41.2422599  15.2522094  16.5769280  40.0452599
  17.5972094  34.3199280  37.4092599  17.5892094  34.7189280  36.5392599
  16.8032094  34.6489280  37.8312599  22.7582094  12.9379280  33.8222599
  23.3102094  13.5789280  33.3742599  22.4542094  12.3549280  33.1272599
  30.8662094  27.6869280  36.2372599  30.1322094  27.3819280  36.7692599
  31.2622094  28.3889280  36.7542599  13.3852094  37.2219280  18.0062599
  12.8102094  37.7579280  18.5512599  14.1262094  37.7929280  17.8032599
  13.0652094  19.5699280  38.9672599  13.8722094  19.6449280  39.4752599
  12.3832094  19.4119280  39.6202599  25.4382094  19.2489280  38.2112599
  25.1272094  19.3089280  37.3082599  26.3862094  19.3629280  38.1472599
  23.9862094  17.2729280  32.5272599  23.3132094  16.6989280  32.1612599
  24.5712094  16.6839280  33.0032599  16.4092094  38.3939280  30.1682599
  16.3082094  37.7549280  29.4632599  16.9602094  39.0809280  29.7922599
  13.0852094  34.6089280  26.3982599  12.1642094  34.8369280  26.2732599
  13.4432094  34.5629280  25.5122599  10.7342094  37.6309280  25.0022599
  10.6402094  37.1669280  24.1702599  11.2652094  38.3989280  24.7902599
  21.1792094  18.4549280  39.7102599  21.9062094  17.8949280  39.9822599
  21.5412094  18.9899280  39.0032599  22.1942094  15.5529280  38.6622599
  22.4192094  15.4779280  39.5892599  21.3372094  15.1329280  38.5882599
  36.2582094  10.8039280  24.1942599  36.3772094  11.1589280  25.0752599
  37.1472094  10.6629280  23.8692599   8.3872094  26.2479280  40.0632599
   9.0922094  26.5339280  40.6432599   8.8342094  25.8059280  39.3422599
  22.8982094  20.4989280  38.6392599  23.7352094  20.0389280  38.7122599
  23.1002094  21.4029280  38.8812599  11.0432094  36.7029280  16.7242599
  10.7202094  37.5579280  16.4392599  11.9272094  36.8749280  17.0462599
   9.3102094  30.5669280  28.4742599  10.0292094  30.2449280  27.9322599
   9.4942094  31.4989280  28.5892599  32.9632094  24.0129280  26.2092599
  33.7822094  23.8879280  25.7302599  33.0182094  23.3999280  26.9422599
  21.9282094  26.8099280  39.4562599  22.2112094  27.6849280  39.1872599
  22.4482094  26.6189280  40.2362599  25.9932094  27.0809280  40.1562599
  26.3612094  26.1989280  40.1052599  26.6852094  27.6499280  39.8192599
  23.9892094  29.0029280  26.5832599  24.7282094  28.4089280  26.4522599
  23.9072094  29.4719280  25.7522599  25.0092094  19.1069280  35.3282599
  24.2382094  18.6439280  35.0002599  25.7462094  18.6909280  34.8822599
  34.3402094  21.5229280  27.1442599  34.6882094  20.9369280  27.8162599
  33.6582094  21.0109280  26.7092599  15.6932094  37.9859280  15.3342599
  16.4472094  38.2519280  14.8072599  15.8492094  38.3819280  16.1912599
  11.2252094  35.6919280  20.5672599  12.1602094  35.4839280  20.5692599
  11.1872094  36.6229280  20.3492599  18.8322094  16.5629280  34.2212599
  19.1072094  15.9299280  34.8852599  19.1182094  17.4089280  34.5652599
  28.6872094  29.3269280  32.2772599  28.7172094  30.2809280  32.2032599
  28.4042094  29.0289280  31.4132599  23.3862094  21.2199280  34.9412599
  24.1392094  20.8169280  35.3732599  22.6952094  20.5589280  34.9972599
  15.0672094  34.4639280  34.3252599  15.7162094  34.6659280  33.6512599
  14.2602094  34.2969280  33.8382599  36.0182094  15.7079280  12.9022599
  36.0572094  15.4139280  13.8122599  36.7272094  15.2329280  12.4672599
  20.0192094  14.5319280  36.4702599  19.4092094  15.2359280  36.6882599
  19.4772094  13.8679280  36.0442599  29.2612094  17.8229280  40.0982599
  30.1472094  17.4629280  40.0452599  28.6872094  17.0679280  39.9732599
  23.0832094  27.8429280  35.4802599  22.7752094  27.2739280  36.1852599
  24.0372094  27.8259280  35.5572599  21.8672094  37.6749280  37.3152599
  22.5602094  38.2079280  36.9242599  21.5252094  38.2129280  38.0292599
  19.2672094  10.7239280  36.2692599  19.0822094  10.7779280  37.2062599
  18.8622094  11.5079280  35.8982599  10.6602094  18.0389280  37.7612599
  10.8962094  17.1529280  37.4872599  11.2852094  18.2509280  38.4542599
  27.3032094  12.2729280  25.6412599  27.7952094  12.9369280  25.1582599
  26.4512094  12.2419280  25.2062599  16.3372094  38.1249280  33.1182599
  17.1222094  38.6699280  33.1682599  16.3552094  37.7579280  32.2342599
  12.8832094  14.9969280  38.5792599  13.4602094  15.2199280  37.8492599
  13.4172094  15.1429280  39.3602599  22.7442094  33.9859280  36.9002599
  22.0092094  33.4329280  36.6362599  23.2772094  34.0699280  36.1092599
  14.3422094  15.5759280  36.1552599  13.8612094  15.4619280  35.3362599
  14.4612094  16.5219280  36.2342599  21.4982094  19.2559280  35.6142599
  20.6602094  19.1219280  35.1722599  21.7972094  18.3739280  35.8342599
  31.9552094  14.5059280  27.7602599  31.0162094  14.4659280  27.5782599
  32.3692094  14.1769280  26.9622599   8.9622094   9.0619280  39.5502599
   9.7622094   9.5079280  39.8282599   8.2952094   9.7489280  39.5422599
  10.2262094  36.3919280  39.1842599  10.4532094  36.1979280  38.2742599
  10.0922094  37.3389280  39.2012599  16.0102094  27.7149280  39.4872599
  16.2472094  27.2009280  40.2592599  15.4152094  28.3869280  39.8192599
  17.9992094  12.9459280  35.3202599  17.1002094  13.0089280  35.6432599
  17.9092094  12.8999280  34.3682599  15.3462094  19.8439280  40.1312599
  16.2942094  19.9739280  40.1392599  15.1772094  19.2579280  40.8692599
  13.1462094  10.9219280  40.2662599  12.5902094  10.8499280  41.0412599
  12.6622094  10.4639280  39.5792599  36.1212094   8.3409280  37.9822599
  36.4912094   9.0849280  38.4572599  36.6462094   8.2799280  37.1842599
  26.0142094  11.9669280  32.9642599  26.0462094  11.0529280  33.2482599
  26.5242094  11.9839280  32.1542599   8.0652094  37.5689280  11.8312599
   8.3652094  38.0809280  11.0802599   8.2252094  36.6589280  11.5812599
  22.4382094  16.7149280  35.9472599  21.7242094  16.0819280  36.0182599
  22.9092094  16.6399280  36.7772599   8.8042094  18.0969280  35.8202599
   9.5132094  17.9729280  36.4512599   9.2402094  18.4039280  35.0262599
  31.2142094  27.8159280  32.0242599  31.4722094  26.9319280  32.2862599
  30.3592094  27.9479280  32.4352599  12.3022094  12.4419280  37.4872599
  11.3742094  12.5769280  37.2962599  12.5362094  13.1659280  38.0672599
  28.7292094  10.7149280  34.9202599  28.3822094  10.5519280  34.0432599
  28.6302094   9.8799280  35.3772599  29.4802094  26.2469280  34.4222599
  29.3702094  25.4619280  34.9592599  29.9032094  26.8779280  35.0032599
  16.8302094  36.2629280  35.5862599  16.6442094  36.0129280  34.6812599
  17.5772094  36.8579280  35.5222599  10.7442094  15.6269280  36.6582599
  11.5442094  15.1079280  36.7422599  10.5982094  15.6909280  35.7142599
   8.1782094  22.6159280  40.2532599   8.7262094  23.3799280  40.0712599
   8.1362094  22.5729280  41.2082599  18.5332094  21.6299280  39.4982599
  17.8932094  22.1769280  39.0432599  19.0912094  21.2829280  38.8022599
  35.6202094   9.7529280  28.3862599  35.5632094   8.8289280  28.6302599
  35.5662094  10.2239280  29.2182599  24.1502094  25.0499280  33.2442599
  23.9942094  25.9729280  33.4452599  25.0502094  25.0239280  32.9202599
   8.0622094  11.8539280  34.5742599   7.7432094  10.9769280  34.3632599
   8.8252094  11.9749280  34.0082599  23.0982094  36.0809280  31.5442599
  22.6482094  35.3829280  31.0682599  22.4852094  36.3349280  32.2332599
  22.7452094  12.6249280  36.7292599  22.0502094  13.2829280  36.7402599
  22.9782094  12.5369280  35.8052599  24.8242094  38.5099280  33.2652599
  24.6152094  37.8099280  32.6472599  24.4952094  38.1929280  34.1062599
  16.5652094  16.5199280  38.8712599  15.9892094  16.6129280  38.1122599
  17.3742094  16.9619280  38.6142599  25.6162094  37.8319280  38.9432599
  25.1302094  37.0139280  38.8402599  25.9172094  37.8199280  39.8522599
  16.9092094  36.5059280  19.2302599  16.6092094  36.4979280  18.3222599
  16.3342094  37.1339280  19.6672599  35.2402094  34.3259280  22.8192599
  35.4362094  35.1669280  23.2322599  34.2862094  34.3139280  22.7392599
  12.1872094  37.9559280  28.8582599  12.3212094  38.1049280  29.7942599
  11.8022094  38.7719280  28.5382599  10.5142094  33.0409280  29.9822599
  11.3932094  32.6649280  29.9372599  10.6042094  33.9089280  29.5892599
  24.7952094  29.9079280  32.0642599  24.3002094  30.6349280  32.4422599
  24.3922094  29.1239280  32.4372599  20.0302094  33.4089280  32.5172599
  19.6752094  32.6899280  31.9942599  20.5142094  33.9449280  31.8892599
  11.8652094  30.9259280  27.1992599  12.4642094  31.6719280  27.2302599
  12.3982094  30.1799280  27.4752599  37.1962094  30.3779280  40.4702599
  36.5012094  30.4559280  41.1242599  37.1312094  29.4769280  40.1562599
  31.5062094  33.1519280  24.7202599  32.0842094  32.4189280  24.5122599
  31.7362094  33.8279280  24.0822599  13.0392094  35.8239280  40.5532599
  12.4432094  35.9869280  39.8212599  12.5492094  35.2449280  41.1372599
  22.6322094  33.5369280  24.6282599  23.4332094  33.6469280  24.1162599
  22.2682094  32.7039280  24.3282599  18.3512094  37.7989280  24.7132599
  19.1472094  37.4579280  25.1212599  18.0162094  38.4419280  25.3392599
  35.3642094  10.8579280  30.7652599  34.5622094  10.6449280  31.2432599
  35.6162094  11.7219280  31.0902599  26.4082094  37.3379280  19.9212599
  25.8692094  37.7259280  20.6102599  25.7852094  37.0979280  19.2352599
  22.6242094  31.6899280  30.6232599  23.1932094  31.5479280  29.8672599
  22.1882094  30.8489280  30.7572599  19.6712094  34.4559280  39.8482599
  19.3462094  34.4119280  40.7472599  18.8882094  34.5979280  39.3162599
  18.4572094  34.5309280  27.1402599  19.0812094  34.4609280  26.4182599
  18.4572094  33.6619280  27.5432599  36.0422094  32.3489280  21.0762599
  35.3202094  31.7259280  20.9862599  35.7332094  32.9829280  21.7232599
  31.6632094  29.2639280  29.6382599  32.5072094  29.5279280  29.2712599
  31.8892094  28.6719280  30.3562599  37.0302094  35.3319280  19.5632599
  36.4242094  34.6339280  19.3102599  37.6192094  34.9199280  20.1952599
  15.1532094  31.6369280  35.2142599  15.8182094  31.1369280  34.7412599
  15.1422094  32.4909280  34.7802599  36.0062094  37.3989280  30.1622599
  36.5372094  37.2339280  30.9412599  35.1042094  37.2749280  30.4562599
  13.9562094  36.9089280  24.8472599  14.5472094  37.6419280  25.0212599
  13.1512094  37.1339280  25.3132599  16.9572094  31.0369280  37.2942599
  16.4702094  31.0749280  36.4702599  16.9202094  31.9299280  37.6362599
   8.6412094  38.1469280  26.5072599   8.6202094  39.0979280  26.6182599
   9.4722094  37.9759280  26.0642599  13.3202094  31.9419280  30.7142599
  13.5142094  31.7249280  29.8022599  14.1472094  32.2779280  31.0622599
  17.3982094  36.8699280  22.5762599  18.1952094  36.7319280  22.0642599
  17.7102094  37.0399280  23.4652599  24.5752094  30.7999280  38.0402599
  24.8262094  31.3089280  38.8112599  25.3082094  30.9069280  37.4332599
   8.8682094  36.8859280  18.1962599   9.5372094  36.3769280  17.7402599
   8.0832094  36.3399280  18.1582599  26.4972094  35.1129280  24.6462599
  26.7982094  35.3109280  25.5332599  26.5492094  34.1589280  24.5822599
  36.7962094  36.3039280  25.9372599  37.2922094  35.5699280  25.5732599
  37.4522094  36.9829280  26.0952599  11.1322094  35.3029280  28.7602599
  10.9502094  35.2559280  27.8222599  11.6402094  36.1079280  28.8652599
  14.3822094  30.9109280  38.7272599  13.7952094  30.8009280  37.9792599
  15.2612094  30.8359280  38.3542599  22.5272094  29.2889280  38.7482599
  21.8952094  29.9649280  38.5062599  23.3672094  29.6199280  38.4282599
  27.0912094   8.7269280  36.9292599  26.4942094   8.4889280  37.6382599
  27.4832094   9.5529280  37.2122599  33.5632094  31.5839280  32.7612599
  33.0942094  32.2769280  32.2972599  34.4292094  31.5659280  32.3542599
  15.8832094  13.3719280  36.8332599  15.7532094  13.2709280  37.7762599
  15.1542094  13.9229280  36.5472599  12.2422094   9.4359280  38.2312599
  12.4242094  10.2449280  37.7542599  12.1112094   8.7789280  37.5472599
  19.8032094  30.4849280  35.1412599  19.9002094  30.2059280  36.0522599
  20.3272094  29.8589280  34.6412599  16.4632094  34.8989280  25.3172599
  16.9182094  34.6929280  26.1332599  16.2962094  35.8409280  25.3662599
  30.5592094  37.7899280  27.5852599  30.4952094  36.8349280  27.6002599
  30.1822094  38.0419280  26.7432599  23.4432094  31.8849280  33.0722599
  23.0922094  31.9889280  32.1882599  22.6832094  31.9919280  33.6462599
  21.3292094  32.5949280  34.6982599  20.8182094  31.8139280  34.9082599
  20.7692094  33.0959280  34.1052599  20.6702094  27.9159280  34.1382599
  20.7892094  27.1069280  33.6402599  21.3832094  27.9129280  34.7762599
  11.1072094  32.1689280  38.5182599  10.9622094  31.2329280  38.3782599
  11.7942094  32.2089280  39.1832599  30.5282094  33.8039280  36.8832599
  31.0612094  34.2209280  36.2052599  29.8312094  34.4349280  37.0612599
  28.2872094  35.6329280  36.8922599  27.9392094  35.7749280  36.0122599
  28.5372094  36.5059280  37.1952599  21.8852094  34.2199280  30.2572599
  22.0152094  34.2299280  29.3082599  21.8242094  33.2919280  30.4812599
  18.8452094  37.9239280  35.7372599  18.7072094  38.7119280  36.2632599
  19.7812094  37.7409280  35.8202599  12.8142094  33.9679280  32.6812599
  13.3222094  34.3629280  31.9722599  12.4542094  33.1669280  32.3012599
  15.6472094  10.9899280  35.5432599  15.2792094  10.2479280  36.0222599
  15.6562094  11.7049280  36.1792599  10.7572094  29.4089280  38.5452599
   9.8832094  29.2959280  38.1722599  11.3512094  29.0969280  37.8642599
  31.7082094  25.4369280  33.0032599  32.3082094  24.7429280  33.2762599
  30.8802094  25.2229280  33.4322599  18.8852094  28.5149280  40.3872599
  17.9972094  28.3349280  40.0782599  19.1962094  27.6769280  40.7272599
  21.7892094  37.2399280  34.1242599  22.3362094  36.7989280  34.7752599
  21.8362094  38.1659280  34.3592599  15.1992094  34.0489280  39.7232599
  14.5342094  34.4339280  40.2942599  14.7562094  33.9319280  38.8832599
  24.4232094  34.2759280  34.8442599  25.1792094  34.1929280  34.2632599
  23.8312094  33.5759280  34.5692599  23.5702094  33.4639280  27.1372599
  23.1682094  33.4149280  26.2702599  23.8812094  34.3659280  27.2072599
   7.0852094  34.1279280  33.5692599   6.9722094  33.3319280  34.0882599
   8.0252094  34.1679280  33.3922599  33.9582094  12.1009280  33.3412599
  33.9602094  11.2729280  33.8212599  34.5422094  12.6699280  33.8412599
  18.5252094  37.3879280  38.5122599  17.5752094  37.3819280  38.3942599
  18.8782094  37.2329280  37.6362599   8.4632094  29.3569280  32.9402599
   8.7132094  28.6889280  32.3022599   9.1492094  30.0209280  32.8742599
  14.6002094  34.6379280  30.6712599  14.6122094  35.0849280  29.8252599
  15.4292094  34.8829280  31.0832599  18.0322094  10.6269280  38.7432599
  17.1522094  10.4279280  38.4232599  17.9082094  10.8459280  39.6662599
  19.3482094  29.5299280  37.7862599  18.5412094  30.0249280  37.6422599
  19.6262094  29.7759280  38.6682599  28.8332094  34.2939280  29.8622599
  29.0712094  33.9249280  29.0122599  28.3252094  33.6029280  30.2892599
   9.0972094  34.4789280  37.0522599   8.2172094  34.8169280  36.8902599
   8.9972094  33.9029280  37.8102599  33.6882094  31.8459280  14.5042599
  34.4552094  31.7319280  13.9432599  33.3402094  32.7039280  14.2632599
  19.2942094  36.7729280  32.7662599  20.0502094  36.7839280  33.3532599
  19.1012094  37.6969280  32.6062599  14.0922094  38.0949280  35.0162599
  14.5922094  37.5609280  35.6332599  14.7242094  38.3359280  34.3392599
  26.5282094  27.8349280  30.9512599  26.2162094  27.5479280  30.0932599
  25.7312094  28.0239280  31.4462599  21.7222094  11.7929280  39.3512599
  21.3592094  10.9239280  39.1752599  22.2412094  11.9969280  38.5732599
  24.2892094  24.1609280  36.5212599  24.9622094  24.8409280  36.4792599
  23.4812094  24.6349280  36.7162599  15.4402094   9.7029280  38.7572599
  14.7832094   9.8439280  39.4392599  15.3762094   8.7689280  38.5532599
  22.3192094  25.6969280  37.0102599  22.4282094  26.1279280  37.8582599
  21.7322094  24.9629280  37.1882599  14.3272094  35.9829280  28.2982599
  14.0162094  35.7119280  27.4342599  13.7282094  36.6819280  28.5602599
  32.2812094  11.4489280  36.0182599  31.9472094  11.1299280  35.1802599
  32.8242094  10.7329280  36.3482599  15.2202094  37.6039280  21.1512599
  15.7992094  37.2819280  21.8412599  14.6982094  38.2849280  21.5752599
  15.6102094  37.0229280  38.4112599  15.2842094  36.4389280  37.7262599
  15.2082094  36.6959280  39.2162599  17.9612094  14.6469280  40.5802599
  18.3082094  15.3249280  41.1592599  17.3412094  15.1079280  40.0142599
  37.1262094  21.3689280  30.7712599  36.4282094  21.9849280  30.5472599
  36.7362094  20.5059280  30.6322599  30.0122094  30.2819280  40.5162599
  30.2972094  29.5969280  41.1222599  30.5852094  30.1819280  39.7562599
  35.4082094  31.7589280  25.4822599  34.7512094  31.8889280  24.7992599
  36.2232094  31.6009280  25.0042599  26.7212094  25.6759280  37.2602599
  27.4792094  25.3089280  36.8052599  26.7252094  25.2479280  38.1162599
   7.6502094  31.3269280  23.8722599   7.4002094  30.4189280  23.7022599
   8.5472094  31.2719280  24.2012599  32.4842094  14.0529280  30.3532599
  33.3592094  13.7179280  30.1572599  32.1092094  14.2599280  29.4972599
  36.7202094   9.1359280  13.9902599  37.3832094   9.1989280  13.3032599
  36.3302094   8.2699280  13.8682599   8.4302094  33.8179280  21.7032599
   9.0712094  33.2349280  21.2962599   7.6282094  33.2979280  21.7512599
  25.2042094  15.4429280  37.8332599  24.5132094  14.9969280  38.3222599
  25.2872094  14.9409280  37.0222599  33.9302094  12.0499280  28.4762599
  33.6532094  12.5189280  27.6892599  33.2342094  11.4129280  28.6342599
  27.0832094  16.2189280  39.8482599  26.6432094  15.9539280  39.0402599
  26.4612094  16.0049280  40.5422599  36.4052094  32.2019280  16.4522599
  36.5532094  32.7549280  15.6852599  36.6182094  31.3169280  16.1552599
  31.3712094  12.8659280  39.8892599  31.1072094  13.4579280  39.1852599
  30.6222094  12.8539280  40.4862599  34.2082094   9.0509280  33.9702599
  33.2992094   8.8089280  33.7912599  34.6462094   8.2199280  34.1542599
  34.2422094  28.7869280  24.1472599  33.3932094  28.5019280  23.8102599
  34.6202094  28.0009280  24.5412599  32.1632094   9.4649280  30.7272599
  31.8602094   9.8329280  29.8972599  31.6632094   9.9339280  31.3952599
  29.7192094  32.3489280  26.8832599  30.5072094  32.2619280  27.4192599
  30.0462094  32.5029280  25.9972599  33.5092094  15.9289280  34.5562599
  33.4892094  15.1889280  35.1622599  34.2922094  16.4209280  34.8042599
  32.9252094  34.9499280  26.6142599  32.7272094  34.0549280  26.3402599
  32.0732094  35.3289280  26.8302599  28.1662094  19.7869280  38.7182599
  28.6722094  19.1749280  39.2522599  28.6592094  19.8559280  37.9002599
  34.8612094  15.6659280  39.1072599  35.3802094  16.4399280  38.8872599
  34.7012094  15.2359280  38.2672599  24.2332094  18.2129280  40.7092599
  24.1202094  19.1499280  40.8642599  24.5472094  18.1549280  39.8062599
  35.1822094   9.9799280  19.9102599  34.8562094   9.2099280  20.3752599
  34.7732094   9.9299280  19.0462599  37.0542094  30.9209280  34.3332599
  37.7072094  30.4469280  33.8192599  36.3102094  31.0249280  33.7392599
  30.1592094  38.2069280  17.2942599  29.5052094  38.5439280  17.9062599
  30.8312094  37.8149280  17.8532599  37.2192094  17.7919280  17.9612599
  36.2832094  17.6899280  18.1332599  37.3592094  17.3469280  17.1262599
  35.1812094  17.3709280  29.3272599  36.0722094  17.2229280  29.6462599
  34.6292094  16.8439280  29.9052599  33.1222094  29.5349280  39.5502599
  32.6172094  29.4539280  38.7422599  33.6242094  30.3429280  39.4402599
  24.0352094  38.0979280  21.2342599  23.5082094  37.5119280  21.7772599
  23.4662094  38.3209280  20.4982599  29.2382094  36.2839280  31.9922599
  29.4792094  35.7489280  31.2362599  29.5952094  37.1509280  31.7962599
  33.1922094  36.8869280  31.1912599  32.5752094  36.3049280  30.7462599
  32.8662094  37.7679280  31.0062599  27.6542094  36.0339280  27.1162599
  27.2022094  36.8439280  27.3542599  27.1002094  35.3369280  27.4662599
  34.8522094  26.2699280  31.0482599  34.1972094  26.3569280  31.7412599
  34.9802094  27.1619280  30.7252599  34.2992094  36.2919280  24.9142599
  33.8172094  35.7849280  25.5672599  35.1972094  36.3169280  25.2442599
  30.0342094  22.8199280  39.9002599  30.2602094  23.7299280  40.0952599
  29.5272094  22.8679280  39.0902599  35.1762094  17.6489280  36.0332599
  35.7672094  17.6999280  36.7842599  34.6632094  18.4559280  36.0762599
  36.5952094  28.9009280  23.0972599  35.7032094  28.9089280  23.4442599
  36.4832094  28.8869280  22.1472599  29.8792094  19.8059280  36.7662599
  29.9512094  18.9919280  36.2672599  30.7712094  19.9839280  37.0652599
  25.7412094  27.3619280  35.2962599  25.9812094  26.7359280  35.9802599
  26.5402094  27.8639280  35.1392599  30.2802094  13.0169280  37.2312599
  30.9802094  12.5889280  36.7392599  29.6432094  13.2769280  36.5662599
  36.5902094  29.7389280  27.4172599  36.3062094  30.5509280  26.9972599
  37.4792094  29.9239280  27.7192599  37.1872094  11.7479280  19.3492599
  36.4752094  11.1229280  19.4862599  36.8112094  12.5959280  19.5832599
  35.5532094  13.9029280  29.9152599  35.9912094  14.4289280  29.2462599
  35.2472094  13.1259280  29.4472599  20.8932094   9.2439280  39.4082599
  19.9962094   9.1109280  39.7132599  21.4322094   9.1279280  40.1912599
  28.1292094  12.8199280  28.3692599  27.7692094  12.3419280  27.6222599
  28.7112094  13.4719280  27.9782599  26.7392094  21.8909280  39.9342599
  26.8082094  21.3689280  40.7342599  27.1262094  21.3399280  39.2542599
  36.5922094  18.2129280  11.8302599  36.9702094  18.0529280  10.9662599
  36.0752094  17.4279280  12.0152599  31.0012094  25.2249280  40.3282599
  30.9642094  25.8179280  41.0782599  31.8422094  25.4149280  39.9122599
   9.7902094  24.8209280  38.2192599   9.5562094  24.4779280  37.3572599
  10.7222094  24.6209280  38.3122599  31.5712094  24.8869280  37.1342599
  31.6862094  25.7729280  36.7922599  31.2252094  25.0139280  38.0182599
  36.3632094  18.8139280  33.0992599  35.4712094  19.0239280  32.8222599
  36.2812094  18.5979280  34.0282599  34.7032094  20.0849280  29.4412599
  34.7722094  19.1319280  29.3812599  34.7922094  20.2739280  30.3752599
  35.3062094  21.5119280  34.5982599  35.9492094  21.1119280  35.1852599
  34.6402094  21.8729280  35.1832599   8.1632094  22.3589280  37.4102599
   8.4652094  22.4459280  38.3142599   8.9312094  22.0509280  36.9292599
  31.3002094  10.1709280  38.7292599  31.9682094   9.8659280  38.1152599
  31.5932094  11.0449280  38.9872599   7.8702094  12.9169280  37.1942599
   8.0092094  12.7709280  36.2592599   8.0642094  13.8449280  37.3242599
  35.2182094  34.2059280  10.8152599  34.8392094  34.8199280  10.1852599
  35.9782094  34.6669280  11.1702599  28.3812094  13.4359280  35.0222599
  27.5372094  13.6999280  35.3872599  28.4432094  12.4999280  35.2122599
  33.7312094  14.0149280  36.5532599  33.0082094  13.4019280  36.4202599
  34.5102094  13.5299280  36.2802599  35.9472094  36.6199280  13.6622599
  36.0632094  35.7209280  13.9702599  36.6652094  36.7579280  13.0452599
  34.1962094  16.1899280  31.5242599  34.3512094  16.0029280  32.4502599
  33.3622094  15.7609280  31.3302599  10.4222094  27.1339280  35.4052599
   9.7972094  26.4099280  35.4292599  11.2702094  26.7269280  35.5822599
  12.3702094  23.6809280  39.3452599  12.4372094  23.0819280  38.6022599
  13.2782094  23.8529280  39.5962599  30.2422094  35.2579280  26.5702599
  29.3052094  35.2559280  26.7642599  30.3652094  34.5179280  25.9752599
  33.2702094  23.4119280  33.5262599  34.0172094  23.0049280  33.0872599
  33.3552094  23.1449280  34.4412599  33.8992094  37.3299280  11.8382599
  34.7192094  36.9789280  12.1852599  33.5192094  37.8189280  12.5682599
  31.4432094  31.9789280  28.9822599  31.4632094  31.1929280  29.5292599
  32.3362094  32.0599280  28.6462599  34.5962094  36.4799280  38.9722599
  34.0532094  37.0109280  39.5562599  35.2562094  37.0889280  38.6402599
  32.4322094  23.5719280  29.8532599  31.8682094  23.7759280  30.6002599
  32.2152094  24.2369280  29.2002599  35.0762094  11.3749280  11.4032599
  34.3262094  10.8019280  11.5642599  34.7582094  12.2519280  11.6142599
  24.7762094  14.3809280  32.4792599  25.1142094  13.4869280  32.5292599
  25.4272094  14.8559280  31.9622599  25.8202094  12.2289280  38.3132599
  26.6332094  11.7309280  38.2282599  25.7732094  12.4559280  39.2422599
  36.4052094  20.1459280  36.8952599  36.5732094  19.5899280  37.6562599
  36.7632094  20.9999280  37.1382599  36.6012094  11.6019280  26.6862599
  36.4242094  10.8209280  27.2112599  36.0942094  12.2949280  27.1102599
  33.3292094  20.8339280  38.2412599  32.6202094  20.6689280  38.8622599
  34.0902094  21.0239280  38.7892599  25.0672094  16.0609280  34.7362599
  24.9452094  15.1119280  34.7062599  24.2032094  16.4069280  34.9622599
  28.7512094  24.1189280  36.0342599  29.4292094  23.9389280  36.6852599
  28.5742094  23.2689280  35.6302599  37.0372094  11.0299280  39.3222599
  36.4992094  11.3599280  40.0412599  36.9072094  11.6619280  38.6152599
  35.8852094  13.4169280  34.5872599  36.4162094  14.1009280  34.9962599
  36.4582094  12.6509280  34.5622599   9.7042094  12.2269280  39.6082599
   9.5272094  13.1659280  39.6512599   9.1922094  11.9189280  38.8602599
  27.3232094  24.6559280  39.5922599  27.1092094  23.7409280  39.4132599
  27.7642094  24.6379280  40.4422599  29.1142094  26.8949280  38.0382599
  28.8732094  27.6539280  38.5692599  28.3932094  26.2769280  38.1602599
  27.8472094  29.0899280  39.1672599  27.9942094  29.3689280  40.0702599
  27.7522094  29.9059280  38.6752599   7.3082094  15.6099280  35.6502599
   8.1882094  15.7439280  35.2962599   6.8652094  16.4479280  35.5152599
  33.0652094  22.6549280  35.9962599  33.1072094  22.0329280  36.7232599
  32.5412094  23.3809280  36.3332599  34.1562094  34.5589280  32.7892599
  35.0782094  34.6499280  33.0332599  33.9932094  35.2879280  32.1912599
  28.5382094  32.0199280  37.7692599  29.2392094  32.5739280  37.4252599
  28.0072094  32.6089280  38.3042599  31.3012094  12.1519280  31.7372599
  31.7752094  12.9119280  31.3982599  31.7292094  11.9549280  32.5702599
   7.0612094  17.6639280  38.0642599   7.6272094  17.9329280  37.3402599
   7.6402094  17.1849280  38.6572599  35.3752094  20.9529280  39.9632599
  36.2252094  21.3919280  39.9592599  35.3922094  20.4039280  40.7472599
   9.6212094  37.8839280  31.9362599   8.9542094  37.1989280  31.9182599
   9.3312094  38.5189280  31.2812599  35.8002094  28.9889280  30.9952599
  36.3902094  29.2989280  31.6812599  35.6942094  29.7399280  30.4112599
  31.7652094  34.6199280  30.3822599  32.4992094  34.1699280  29.9632599
  30.9892094  34.2789280  29.9362599  29.1582094  38.1669280  14.9042599
  28.6792094  38.9889280  15.0002599  29.4802094  37.9719280  15.7842599
   8.2202094  34.0399280  24.5852599   7.3962094  33.6759280  24.9072599
   8.4182094  33.5279280  23.8012599   9.1212094  38.1239280  29.2562599
   9.4342094  37.2199280  29.2692599   8.6982094  38.2189280  28.4022599
   9.2672094  36.7699280  14.1222599   8.8352094  37.2109280  13.3912599
   9.6542094  37.4799280  14.6352599  32.6892094  33.7909280  39.4002599
  33.5372094  33.3519280  39.3242599  32.2312094  33.5689280  38.5892599
  33.8622094  25.9999280  24.1732599  33.4662094  26.2199280  25.0172599
  33.9992094  25.0529280  24.2132599   9.9232094  31.6779280  32.3182599
  10.0762094  32.0469280  31.4492599   9.7342094  32.4359280  32.8712599
  10.2402094  35.2039280  26.1862599   9.5992094  34.7299280  25.6572599
  10.3032094  36.0649280  25.7732599   8.3952094  32.8149280  39.5902599
   7.9392094  32.0249280  39.8792599   9.3062094  32.5409280  39.4822599
  32.8602094  29.3259280  33.8642599  33.1252094  30.1289280  33.4162599
  32.2152094  28.9269280  33.2812599  27.1282094  34.3989280  38.9942599
  26.2422094  34.7549280  38.9312599  27.5692094  34.7109280  38.2042599
  34.6582094  34.2719280  17.1212599  34.9452094  33.3689280  17.2512599
  34.5832094  34.3659280  16.1712599  34.3412094  33.6589280  29.4752599
  34.4182094  33.0269280  28.7612599  35.1302094  34.1959280  29.4072599
  36.1852094  23.6859280  27.9982599  35.8552094  23.4799280  28.8722599
  35.7452094  23.0609280  27.4222599  24.2122094  31.1459280  28.2832599
  24.0682094  30.4509280  27.6402599  23.9632094  31.9499280  27.8282599
  31.8152094  38.1489280  13.8792599  30.8682094  38.0359280  13.9552599
  32.1692094  37.7399280  14.6692599  31.3422094  36.9049280  19.2852599
  32.1742094  36.4319280  19.3002599  30.7112094  36.2919280  19.6622599
  34.8172094  36.7789280  18.2002599  34.7542094  35.8269280  18.1192599
  34.7422094  36.9439280  19.1402599  33.9052094  31.6729280  27.7312599
  34.2342094  31.9659280  26.8812599  33.6282094  30.7689280  27.5832599
  35.8302094  31.8529280  12.7462599  36.7342094  32.1579280  12.8142599
  35.4172094  32.4599280  12.1322599  25.2892094  37.7699280  24.4632599
  26.0122094  38.3929280  24.5312599  25.7082094  36.9389280  24.2412599
  36.8992094  35.4709280  28.7662599  36.7382094  35.9349280  27.9442599
  36.4512094  35.9949280  29.4292599  32.4902094  34.4459280  22.3872599
  32.2392094  34.0329280  21.5612599  31.8642094  35.1619280  22.4972599
  20.6982094  36.3549280  25.9772599  21.6342094  36.2859280  26.1642599
  20.4512094  35.4859280  25.6612599  24.2412094  35.2969280  38.8192599
  23.5802094  35.5449280  39.4652599  23.7392094  34.9299280  38.0912599
  10.0672094  35.8989280  22.8812599   9.2112094  35.4739280  22.8292599
  10.4552094  35.7659280  22.0172599  34.7802094  37.3589280  21.0522599
  34.6392094  37.8069280  21.8862599  35.6892094  37.0629280  21.0882599
  17.0852094  36.7599280  28.1822599  17.7352094  36.0589280  28.1352599
  16.2482094  36.3229280  28.0242599   7.8102094  33.5209280  30.4402599
   8.7382094  33.3039280  30.5272599   7.7782094  34.1519280  29.7222599
  19.4572094  24.8609280  39.3902599  20.1382094  25.5329280  39.4202599
  19.6412094  24.3679280  38.5902599  32.1272094  36.9879280  23.5082599
  32.8552094  36.5019280  23.8952599  32.5372094  37.7479280  23.0962599
  33.4482094  29.0119280  27.1472599  33.1472094  28.1719280  26.8012599
  34.3392094  28.8399280  27.4522599   8.1082094  38.3949280  20.5622599
   8.6062094  37.8339280  19.9662599   7.2652094  38.5189280  20.1262599
  30.8252094  37.6199280  37.9882599  31.0502094  37.0919280  38.7542599
  30.9022094  38.5249280  38.2902599  15.0332094  13.0899280  39.4452599
  15.4082094  13.1749280  40.3212599  14.5502094  12.2639280  39.4692599
  28.2792094  11.2829280  38.3322599  28.8162094  10.7019280  38.8712599
  28.8932094  11.9389280  38.0012599  26.2812094  33.6919280  28.2452599
  26.0322094  33.9569280  29.1302599  25.7062094  32.9529280  28.0452599
  31.8762094  34.9319280  34.6032599  32.6482094  34.8439280  34.0442599
  31.2082094  34.3939280  34.1772599  26.9762094  35.7489280  33.9072599
  27.7262094  35.5789280  33.3372599  26.7902094  36.6809280  33.7862599
  33.2662094  37.0919280  15.9412599  33.7052094  37.3819280  16.7412599
  33.7182094  36.2829280  15.7002599  35.8902094  31.6719280  30.9232599
  36.7442094  32.0729280  30.7642599  35.2692094  32.2419280  30.4682599
  26.3712094  30.8279280  29.9872599  26.0632094  30.4879280  30.8272599
  25.5832094  30.8829280  29.4472599  36.1132094  27.7909280  39.7272599
  35.6812094  27.4659280  38.9372599  36.9322094  27.2989280  39.7732599
  29.6402094  31.2679280  35.0012599  30.4772094  31.7329280  35.0212599
  29.1082094  31.7579280  34.3742599  36.5202094  28.5429280  20.2252599
  37.3262094  28.9439280  19.8992599  35.9002094  28.6309280  19.5012599
  36.9262094   9.6859280  33.3412599  37.1592094   9.0339280  32.6802599
  35.9842094   9.5709280  33.4702599  21.8012094  32.7459280  39.4822599
  20.9432094  33.1689280  39.5032599  22.2762094  33.1999280  38.7862599
   8.6712094  28.9489280  36.7352599   9.1782094  28.3199280  36.2212599
   8.0652094  29.3399280  36.1052599  33.5882094  18.5649280  40.2842599
  33.5682094  19.1159280  41.0662599  33.4402094  19.1729280  39.5592599
  36.2872094  34.8679280  36.6002599  35.7112094  34.9219280  37.3622599
  35.7792094  34.3829280  35.9492599  34.6162094  33.0649280  35.1782599
  33.8012094  32.9769280  34.6852599  34.5552094  32.3989280  35.8632599
  33.6392094  26.6789280  34.5942599  33.7852094  27.5099280  34.1432599
  32.7042094  26.5049280  34.4832599  33.8152094  13.6049280  40.7702599
  32.9912094  13.2079280  40.4882599  33.8102094  14.4749280  40.3712599
  10.0302094  34.1479280  33.7632599  10.9562094  33.9329280  33.6482599
  10.0352094  35.0039280  34.1922599  31.0642094  30.2019280  37.7942599
  31.7502094  30.6829280  37.3322599  30.2802094  30.7409280  37.6862599
  35.2542094  23.4449280  30.8052599  35.2612094  24.3799280  30.5972599
  34.3762094  23.2819280  31.1482599  33.2512094  25.9739280  39.4852599
  33.9412094  25.3439280  39.2802599  33.6122094  26.8199280  39.2202599
  37.0932094  36.4689280  32.4802599  36.5632094  36.8179280  33.1972599
  37.2292094  35.5489280  32.7072599  34.7432094  31.7369280  39.0692599
  35.3822094  32.2369280  39.5762599  35.2462094  31.3729280  38.3412599
  34.9972094  26.3539280  37.2522599  34.5472094  26.7399280  36.5012599
  35.0582094  25.4219280  37.0422599  28.0102094  28.8749280  35.1602599
  28.6292094  29.6019280  35.2252599  27.9972094  28.6539280  34.2282599
  33.3042094   9.1129280  37.1532599  33.0742094   8.5239280  36.4352599
  34.0972094   8.7329280  37.5312599  31.2852094  20.6919280  39.9992599
  30.8922094  21.5649280  39.9912599  30.5482094  20.0989280  40.1492599
  36.2652094  30.4459280  37.1082599  36.9802094  29.9419280  37.4972599
  36.6562094  30.8639280  36.3412599  33.6452094  30.5389280  36.4392599
  34.4872094  30.1219280  36.6222599  33.3232094  30.0939280  35.6542599
  31.4572094  37.6509280  35.2772599  31.4742094  37.3849280  36.1962599
  31.6572094  36.8509280  34.7922599  26.5842094  31.2639280  35.8522599
  26.6952094  30.5419280  35.2332599  27.2992094  31.1559280  36.4782599
  27.9252094  12.3379280  30.8612599  28.0502094  12.3879280  29.9142599
  28.7962094  12.4889280  31.2272599  36.2072094  37.2489280  34.9472599
  37.0492094  37.5999280  35.2392599  36.0332094  36.5179280  35.5402599
  24.0232094   9.6459280  37.7042599  24.6632094   9.0309280  38.0642599
  24.3102094  10.5029280  38.0192599  33.3452094  34.8399280  14.5232599
  32.8542094  35.6489280  14.6662599  32.9972094  34.4909280  13.7032599
  24.2272094  36.8479280  35.4322599  24.7682094  36.9419280  36.2162599
  24.3622094  35.9419280  35.1552599  30.8072094  33.3889280  32.6902599
  30.0392094  33.0349280  32.2412599  31.3372094  33.7739280  31.9922599
  28.4402094  31.9529280  31.4022599  27.7052094  31.5179280  30.9712599
  28.0432094  32.4289280  32.1312599  10.3602094  38.1339280  34.4792599
  10.0822094  37.9359280  33.5852599  10.7962094  38.9839280  34.4132599
  25.7612094  35.0089280  30.5932599  26.5842094  35.4419280  30.8192599
  25.1222094  35.3739280  31.2042599  31.1452094  10.1029280  33.9762599
  30.2712094  10.3819280  34.2512599  31.1882094   9.1769280  34.2152599
  35.9932094  24.5619280  39.6532599  36.6022094  25.2909280  39.5382599
  36.5542094  23.7909280  39.7362599  36.5452094  14.9019280  32.3562599
  36.1562094  14.6069280  31.5332599  36.2132094  14.2889280  33.0122599
  31.7532094  36.3489280  40.2022599  32.1152094  35.5039280  39.9362599
  32.3692094  36.6789280  40.8562599  23.2152094  37.6959280  29.2042599
  22.2782094  37.6089280  29.0272599  23.3232094  37.3609280  30.0942599
  27.5732094  32.6439280  33.8182599  27.2702094  33.5429280  33.9442599
  27.0262094  32.1219280  34.4052599  11.7502094  34.2979280  36.5882599
  10.8152094  34.4639280  36.7052599  11.8882094  33.4269280  36.9622599
  17.1882094  34.6689280  32.5832599  18.0152094  34.1979280  32.6882599
  17.4482094  35.5809280  32.4472599  20.3012094  37.6829280  28.7182599
  20.6082094  37.0939280  28.0292599  19.5322094  38.1109280  28.3422599
  26.5892094  25.4399280  44.0762599  26.4942094  24.5619280  44.4462599
  25.8242094  25.5449280  43.5112599  14.1512094  35.7099280  44.7472599
  13.4462094  35.1529280  45.0772599  14.1762094  36.4489280  45.3552599
  13.0662094  15.4049280  49.3152599  12.6012094  14.6079280  49.0622599
  13.0902094  15.9319280  48.5162599   7.8232094  22.5089280  49.1502599
   7.0002094  22.8289280  48.7782599   8.0962094  21.8079280  48.5592599
  18.4132094  19.7839280  46.3182599  17.8292094  20.2339280  46.9282599
  18.8662094  19.1329280  46.8542599  29.2672094  17.9399280  46.9502599
  29.1782094  18.1739280  46.0262599  29.9262094  18.5469280  47.2882599
  35.2242094  13.9989280  46.1632599  34.2842094  14.1189280  46.0272599
  35.4032094  13.1149280  45.8442599  25.5502094  29.7949280  41.2952599
  24.8962094  30.4849280  41.1812599  25.4662094  29.2529280  40.5112599
  17.8722094  24.4199280  47.2792599  18.3212094  25.2609280  47.3632599
  17.0642094  24.5289280  47.7812599   9.5762094  29.2059280  44.4602599
  10.3692094  29.7419280  44.4612599   9.8602094  28.3559280  44.7962599
  20.7172094  23.1139280  41.1492599  20.0882094  22.4129280  41.3202599
  20.2652094  23.6989280  40.5412599  18.9472094  31.5539280  49.1572599
  18.8772094  32.3179280  48.5862599  19.2632094  30.8539280  48.5852599
  21.7182094  34.4849280  42.5052599  22.3422094  34.4789280  41.7792599
  22.1592094  33.9999280  43.2032599   8.7762094  16.3039280  45.7522599
   9.1002094  15.5159280  45.3172599   9.5622094  16.7299280  46.0952599
  35.7222094  24.0069280  48.2572599  35.6362094  24.5849280  47.4992599
  35.3752094  24.5169280  48.9892599  15.5412094  14.8199280  44.1162599
  16.2052094  15.3419280  43.6662599  15.1752094  15.4129280  44.7732599
  14.9812094  22.2059280  47.7062599  14.3462094  21.9449280  48.3732599
  15.5522094  21.4439280  47.6072599  29.6422094  12.0409280  43.2782599
  28.8692094  12.0109280  42.7142599  29.9852094  12.9279280  43.1672599
  18.3792094  34.7329280  42.1722599  18.4382094  35.6829280  42.2742599
  18.8262094  34.3809280  42.9412599  21.7202094  27.9619280  48.4212599
  21.2082094  27.3969280  48.9992599  21.0942094  28.6159280  48.1092599
  12.1042094  22.5159280  46.6682599  12.4302094  21.7169280  47.0832599
  11.5832094  22.9439280  47.3472599  10.1872094  32.1569280  45.6072599
   9.7472094  31.5669280  46.2192599  10.9782094  31.6859280  45.3452599
  14.5642094  37.2479280  42.2942599  13.8682094  36.7229280  41.8992599
  14.4742094  37.0959280  43.2352599  22.8772094  27.0429280  45.1632599
  23.0542094  27.0389280  44.2232599  23.4352094  26.3489280  45.5152599
  13.1942094   9.3159280  45.0772599  14.0432094   8.9069280  44.9082599
  13.3482094  10.2509280  44.9452599  16.5992094  17.1569280  47.1782599
  17.0882094  16.8909280  47.9572599  17.2062094  17.7179280  46.6952599
  15.8502094  31.5209280  46.3412599  16.3512094  31.1389280  47.0622599
  16.4922094  31.6459280  45.6422599  19.3782094  11.4629280  47.2632599
  19.7702094  11.9429280  47.9932599  20.0132094  10.7759280  47.0582599
  11.6772094  12.7509280  49.2252599  11.0062094  12.1129280  49.4652599
  11.9392094  12.5029280  48.3392599  19.8032094  11.1779280  43.2602599
  19.4352094  11.5479280  42.4582599  20.4622094  11.8149280  43.5382599
  20.7922094  18.1289280  43.7822599  21.2692094  17.3819280  44.1422599
  21.4082094  18.8599280  43.8452599  17.8682094  19.7209280  41.0892599
  18.1502094  20.4009280  40.4772599  17.7812094  20.1749280  41.9282599
  13.3852094  37.2219280  48.0062599  12.8102094  37.7579280  48.5512599
  14.1262094  37.7929280  47.8032599  29.3462094  20.4169280  49.3082599
  29.3902094  21.3679280  49.2162599  30.0052094  20.0849280  48.6982599
  17.3302094  16.9799280  43.5602599  17.9872094  17.0409280  42.8672599
  17.7812094  17.2889280  44.3462599  19.7032094  17.8279280  47.6582599
  20.1112094  17.3919280  46.9092599  19.8052094  17.2089280  48.3812599
  15.6892094  12.5739280  49.2262599  16.0502094  12.8899280  48.3982599
  16.1682094  11.7639280  49.4032599  11.3592094  16.4759280  47.1722599
  10.7872094  16.7669280  47.8822599  11.5102094  17.2619280  46.6472599
  14.8332094  24.0249280  41.1752599  15.3252094  23.3419280  41.6302599
  15.3372094  24.8249280  41.3252599  16.9592094  11.3199280  46.2552599
  17.8082094  11.1709280  46.6732599  16.9872094  10.7909280  45.4582599
  26.9632094  25.4569280  47.4072599  26.8132094  26.2319280  46.8672599
  26.3172094  25.5249280  48.1102599  16.6822094  24.3669280  44.4882599
  16.9532094  24.2349280  45.3972599  17.0932094  25.1929280  44.2332599
  19.5172094  31.8749280  44.6462599  18.7582094  31.3589280  44.3752599
  20.2622094  31.4419280  44.2302599  11.0432094  36.7029280  46.7242599
  10.7202094  37.5579280  46.4392599  11.9272094  36.8749280  47.0462599
  26.1782094  16.7829280  46.5832599  27.0962094  16.8139280  46.8542599
  26.0322094  15.8709280  46.3342599  12.9902094  24.5139280  44.9262599
  13.7822094  24.0779280  44.6122599  12.8052094  24.0969280  45.7682599
  22.8222094  20.0869280  44.3372599  23.6422094  19.6099280  44.4602599
  22.6512094  20.4949280  45.1872599  16.0752094  28.8519280  42.2132599
  15.4702094  28.2139280  42.5912599  15.9592094  29.6379280  42.7472599
  20.6312094   8.9999280  45.7392599  21.4482094   8.9789280  46.2362599
  20.9052094   8.9459280  44.8232599  19.0482094  17.3069280  41.4322599
  18.6602094  18.1379280  41.1602599  19.9922094  17.4619280  41.4062599
  21.9192094  13.4659280  47.3502599  22.4752094  12.6899280  47.2812599
  22.4552094  14.1049280  47.8202599  20.8632094  20.4759280  48.9252599
  20.1452094  20.8829280  49.4112599  20.5782094  19.5729280  48.7882599
  10.3852094  23.7229280  48.6092599   9.7872094  23.8499280  47.8732599
   9.9132094  23.1429280  49.2052599  20.1402094  26.6269280  45.3252599
  20.0132094  26.9139280  46.2292599  21.0732094  26.7629280  45.1592599
  12.4762094  25.0329280  41.8582599  13.3852094  24.8369280  42.0872599
  12.2822094  24.4469280  41.1272599  25.1512094  13.2139280  40.9482599
  24.2392094  13.4819280  41.0642599  25.3852094  12.7949280  41.7772599
  13.2692094  20.1919280  43.7402599  12.4492094  20.6849280  43.7032599
  13.9072094  20.8139280  44.0892599  19.0672094  20.3769280  43.7542599
  18.7832094  20.3989280  44.6672599  19.4712094  19.5159280  43.6482599
  13.5692094  12.3139280  46.8922599  14.0112094  12.5969280  47.6922599
  13.9642094  12.8439280  46.1992599  28.1802094  25.2529280  42.1002599
  28.5372094  26.1269280  41.9412599  27.5922094  25.3659280  42.8462599
  25.1612094  18.6319280  44.9542599  25.7512094  19.3759280  45.0792599
  25.4132094  18.0089280  45.6352599  15.1892094  22.2369280  44.9012599
  15.8712094  22.8509280  44.6302599  15.1132094  22.3639280  45.8472599
  15.6932094  37.9859280  45.3342599  16.4472094  38.2519280  44.8072599
  15.8492094  38.3819280  46.1912599  25.0442094  14.2329280  46.9342599
  25.9612094  14.0479280  46.7322599  24.5552094  13.8429280  46.2102599
  15.0112094  18.1409280  42.5162599  15.8862094  17.8309280  42.7482599
  14.5572094  18.2299280  43.3542599  34.3202094  21.9259280  47.1902599
  33.4002094  22.1599280  47.0682599  34.7182094  22.7099280  47.5682599
  12.5632094  14.2869280  45.1542599  13.1252094  15.0289280  44.9312599
  12.3142094  14.4399280  46.0662599  30.7742094  19.7119280  43.9552599
  29.8822094  20.0579280  43.9372599  31.2992094  20.3799280  43.5142599
  24.2462094  12.7269280  44.3082599  24.5102094  11.8639280  44.6272599
  23.5202094  12.5489280  43.7092599  36.0182094  15.7079280  42.9022599
  36.0572094  15.4139280  43.8122599  36.7272094  15.2329280  42.4672599
  12.8612094  32.0559280  40.6962599  13.2822094  32.3049280  41.5192599
  13.5712094  31.7009280  40.1622599  10.2152094  26.7039280  42.0472599
  10.3442094  27.6519280  42.0762599  11.0602094  26.3549280  41.7662599
  10.7422094  21.2179280  43.8892599   9.9092094  20.8499280  44.1862599
  10.6492094  22.1609280  44.0252599  17.3072094  10.1989280  44.0262599
  16.7572094  10.2699280  43.2452599  18.1612094  10.5299280  43.7482599
  14.9892094  24.9799280  47.6782599  14.8022094  24.0499280  47.8032599
  15.0202094  25.3409280  48.5642599  20.2212094  22.8379280  43.8552599
  20.6172094  23.1129280  43.0292599  19.7892094  22.0089280  43.6502599
  14.3982094  16.4419280  46.0002599  13.8292094  17.1939280  46.1652599
  15.1562094  16.5849280  46.5662599  28.2522094  18.0759280  42.6282599
  28.7202094  17.4529280  43.1832599  28.7322094  18.0669280  41.7992599
  12.0822094  27.2889280  47.1052599  12.4792094  28.1339280  47.3182599
  12.5962094  26.9619280  46.3672599   8.0652094  37.5689280  41.8312599
   8.3652094  38.0809280  41.0802599   8.2252094  36.6589280  41.5812599
  23.3392094  25.2709280  47.5272599  22.6342094  24.9769280  46.9492599
  22.8972094  25.5129280  48.3412599  16.9032094  25.6999280  41.2582599
  17.6682094  25.3249280  40.8222599  17.2652094  26.1969280  41.9922599
  21.5742094  29.3709280  41.6652599  20.7042094  29.6559280  41.3862599
  22.0362094  29.1769280  40.8502599  34.1172094  20.3439280  42.4752599
  34.1082094  20.9189280  43.2412599  34.8212094  19.7199280  42.6502599
  23.0212094  11.7469280  42.1072599  23.5802094  10.9709280  42.0692599
  22.6762094  11.8379280  41.2192599  24.0862094  38.3799280  46.2922599
  23.9372094  37.6449280  46.8882599  23.8032094  38.0559280  45.4372599
  17.0172094  35.6649280  46.0152599  16.1202094  35.8829280  45.7612599
  17.5552094  35.9789280  45.2882599  18.2742094  34.1429280  47.9392599
  18.0812094  34.6249280  48.7422599  17.9472094  34.7059280  47.2372599
  21.1542094  23.9679280  46.4052599  21.3052094  23.0299280  46.2912599
  20.5702094  24.2059280  45.6852599  16.9092094  36.5059280  49.2302599
  16.6092094  36.4979280  48.3222599  16.3342094  37.1339280  49.6672599
  21.0472094  15.1749280  43.0842599  20.2552094  15.6379280  42.8082599
  20.7382094  14.5299280  43.7202599  17.6932094  28.3029280  46.7242599
  17.0432094  27.9499280  46.1172599  17.1822094  28.8139280  47.3522599
  20.2782094  13.5619280  45.2782599  20.8702094  13.5529280  46.0302599
  19.5852094  12.9439280  45.5112599   7.2252094  29.9139280  45.3132599
   8.1182094  29.5909280  45.1972599   6.6772094  29.2729280  44.8592599
  22.9482094  34.3179280  45.3602599  22.8282094  33.5359280  44.8202599
  22.1072094  34.4349280  45.8032599  12.9852094  29.8329280  47.3792599
  13.6412094  30.2159280  47.9612599  12.1692094  29.8709280  47.8782599
  24.6722094  36.1079280  48.3542599  23.8262094  35.7249280  48.5842599
  25.0592094  35.4849280  47.7392599   9.4972094  27.2229280  46.1382599
   8.8502094  27.0619280  46.8262599  10.3422094  27.0879280  46.5672599
  21.4932094  37.2179280  47.9862599  21.9432094  36.5829280  48.5422599
  21.1542094  36.6999280  47.2562599  13.6832094  27.3399280  42.9942599
  13.0912094  27.9549280  42.5612599  13.1842094  26.5249280  43.0492599
  14.4522094  31.5249280  44.0062599  14.7602094  32.2879280  43.5182599
  14.8332094  31.6279280  44.8782599  16.3542094  13.8739280  46.3622599
  16.0382094  14.1069280  45.4892599  16.6062094  12.9539280  46.2892599
  10.4342094  23.9199280  43.8242599  10.8232094  24.5779280  43.2482599
  10.9872094  23.9279280  44.6052599  18.4582094  37.8599280  41.3682599
  18.3312094  37.5369280  40.4762599  17.9132094  38.6459280  41.4182599
  13.8922094  33.3029280  47.6382599  14.5012094  32.8199280  47.0802599
  13.2392094  33.6549280  47.0332599   7.9682094  26.2139280  43.6842599
   8.5622094  26.2689280  44.4332599   8.4932094  26.5049280  42.9392599
  18.0932094  30.7079280  42.5592599  18.0582094  29.8239280  42.1932599
  17.6212094  31.2489280  41.9262599   7.8022094  23.1789280  43.0472599
   7.1732094  23.8899280  43.1662599   8.6532094  23.5789280  43.2242599
  27.2732094  11.4679280  42.0322599  27.6202094  10.7839280  41.4592599
  26.4122094  11.1439280  42.2972599  18.0532094  26.9079280  43.3782599
  17.8592094  27.8399280  43.4832599  18.7492094  26.7349280  44.0132599
  20.8312094   8.8789280  42.4612599  20.0502094   8.6559280  41.9552599
  20.8362094   9.8359280  42.4872599  10.3612094   9.0189280  45.1882599
  11.3162094   9.0859280  45.1822599  10.0652094   9.8439280  45.5722599
  16.6082094  29.8909280  48.5882599  16.0042094  29.9179280  49.3302599
  17.3982094  30.3289280  48.9062599  32.6512094  33.6069280  49.1972599
  31.7642094  33.8549280  48.9382599  33.0882094  33.3859280  48.3742599
  20.4612094  34.4569280  46.1782599  20.2652094  34.2909280  47.1002599
  19.7002094  34.1199280  45.7062599  23.8532094  20.7189280  41.8112599
  23.3312094  21.4739280  41.5382599  23.4192094  20.4009280  42.6032599
  21.6882094  21.2879280  46.4862599  21.5602094  21.1099280  47.4182599
  20.8052094  21.2769280  46.1162599  26.2132094  23.1339280  46.2202599
  26.3662094  23.9769280  46.6462599  26.0092094  22.5359280  46.9392599
  19.3002094  26.7849280  48.3512599  18.9322094  27.0129280  49.2052599
  18.7522094  27.2539280  47.7212599  32.4072094  23.3019280  41.9672599
  32.5052094  22.5219280  41.4202599  31.6242094  23.7369280  41.6262599
  26.0552094  36.0459280  43.9632599  26.9142094  35.7639280  44.2762599
  25.4402094  35.7129280  44.6162599  15.5452094  12.6139280  42.4742599
  15.6362094  13.2569280  43.1772599  14.7242094  12.1599280  42.6682599
  18.3892094  37.1989280  44.0832599  18.3992094  38.0299280  44.5592599
  18.7922094  37.4019280  43.2382599   8.8682094  36.8859280  48.1962599
   9.5372094  36.3769280  47.7402599   8.0832094  36.3399280  48.1582599
   8.6002094  35.1909280  41.0102599   9.3762094  35.5039280  40.5452599
   8.4222094  34.3319280  40.6282599  29.5532094  23.0659280  49.3022599
  28.9272094  23.1019280  50.0252599  30.3252094  23.5279280  49.6302599
  20.1432094  29.8019280  46.9782599  20.6732094  30.2419280  46.3132599
  19.5902094  29.1969280  46.4832599  10.6282094  14.6169280  42.5192599
  11.1902094  15.2839280  42.1242599  11.1632094  14.2349280  43.2152599
  24.1992094  32.0339280  40.7132599  24.6542094  32.8039280  41.0542599
  23.3282094  32.3539280  40.4772599  25.4462094  21.0339280  48.0502599
  24.8942094  20.4059280  47.5842599  24.8462094  21.4859280  48.6432599
   7.3242094  11.9949280  46.4512599   7.1792094  11.0809280  46.2092599
   7.2602094  12.0029280  47.4062599  11.9352094  34.8659280  42.6952599
  12.0182094  34.1449280  43.3192599  11.1152094  35.2969280  42.9332599
  12.7052094  29.2999280  41.2482599  11.8002094  29.3389280  40.9382599
  13.0562094  30.1729280  41.0742599  15.9202094  33.7219280  43.3982599
  16.6402094  33.7919280  42.7722599  15.4802094  34.5709280  43.3532599
  12.0562094  30.4419280  45.1072599  12.6712094  30.7729280  44.4522599
  12.5752094  30.3709280  45.9092599   8.3712094  32.3039280  42.8962599
   8.8912094  31.8079280  42.2642599   8.8092094  32.1579280  43.7342599
  33.6882094  31.8459280  44.5042599  34.4552094  31.7319280  43.9432599
  33.3402094  32.7039280  44.2632599  25.6742094  16.4639280  42.2212599
  26.3872094  16.8179280  42.7522599  25.2382094  17.2359280  41.8592599
  21.6402094  29.3459280  44.3922599  21.5552094  29.2029280  43.4492599
  22.2102094  28.6379280  44.6912599  22.9852094  37.1589280  43.8672599
  22.8492094  36.2329280  43.6672599  22.3172094  37.6159280  43.3562599
  16.2732094   9.6119280  41.7892599  15.5892094   8.9419280  41.7652599
  15.8602094  10.3899280  41.4162599  21.8582094  16.2319280  45.9692599
  22.5502094  16.1109280  45.3192599  21.5872094  15.3429280  46.1982599
  19.4302094  14.7819280  48.4912599  20.2512094  14.3549280  48.2482599
  18.7642094  14.3379280  47.9662599  32.1482094  23.5529280  47.0292599
  31.2592094  23.7799280  46.7552599  32.6792094  24.3059280  46.7712599
  26.5752094  20.4599280  42.3222599  25.6322094  20.5549280  42.1872599
  26.7482094  19.5329280  42.1552599  34.9482094  11.2209280  44.5632599
  35.4032094  10.4539280  44.2152599  34.2282094  11.3709280  43.9512599
  23.0572094  15.4529280  41.2742599  22.3902094  15.2879280  41.9412599
  23.6442094  16.0929280  41.6752599  32.6382094  15.4059280  46.1132599
  32.0732094  14.6429280  45.9922599  32.9512094  15.6149280  45.2322599
  23.8952094  15.4419280  44.5002599  24.3842094  15.9509280  43.8532599
  23.9722094  14.5359280  44.2002599  36.7202094   9.1359280  43.9902599
  37.3832094   9.1989280  43.3032599  36.3302094   8.2699280  43.8682599
   7.7462094  11.8729280  42.7202599   8.0912094  12.3779280  41.9842599
   6.8072094  11.8059280  42.5462599  32.6402094  31.4369280  46.9612599
  33.3512094  31.0279280  47.4552599  33.0132094  31.6009280  46.0952599
  27.0162094  20.5979280  45.4542599  27.4752094  20.7579280  46.2782599
  26.7422094  21.4659280  45.1592599   8.8832094  22.9989280  46.2682599
   8.2612094  22.9489280  45.5412599   8.9492094  22.0999280  46.5892599
  28.8132094  27.9229280  41.8172599  29.5912094  27.5189280  42.2002599
  28.5732094  28.6149280  42.4332599  36.4052094  32.2019280  46.4522599
  36.5532094  32.7549280  45.6852599  36.6182094  31.3169280  46.1552599
  32.9242094  27.5819280  48.7942599  32.0372094  27.5639280  49.1532599
  33.3742094  26.8599280  49.2312599  23.8412094  18.0049280  47.7142599
  23.4732094  17.5379280  46.9632599  24.7452094  17.6969280  47.7692599
  25.5302094  34.1829280  46.6572599  26.0532094  33.4359280  46.3652599
  24.7842094  34.2019280  46.0582599  11.9802094  34.2489280  45.8622599
  11.5402094  35.0729280  46.0742599  11.2672094  33.6309280  45.7022599
   7.2182094  14.7709280  47.9032599   6.6402094  14.3299280  47.2792599
   7.8962094  15.1729280  47.3592599  19.2282094  12.2249280  40.9232599
  18.6362094  12.9479280  40.7162599  19.9032094  12.2659280  40.2452599
  30.1592094  38.2069280  47.2942599  29.5052094  38.5439280  47.9062599
  30.8312094  37.8149280  47.8532599  37.2192094  17.7919280  47.9612599
  36.2832094  17.6899280  48.1332599  37.3592094  17.3469280  47.1262599
   9.8242094  17.3629280  49.2482599  10.2472094  17.5649280  50.0832599
   8.9582094  17.7639280  49.3152599  13.2532094  11.9409280  43.9492599
  12.9002094  12.8049280  44.1632599  12.5632094  11.5219280  43.4342599
  27.3502094  11.6849280  47.7882599  27.9762094  11.1189280  48.2412599
  26.6162094  11.7659280  48.3962599  13.0742094  18.7169280  45.9782599
  12.8232094  19.2729280  46.7162599  13.0602094  19.3019280  45.2212599
  23.1392094  24.3809280  41.2892599  22.2572094  24.0429280  41.4422599
  23.5782094  23.6889280  40.7942599  29.3522094  16.2039280  49.2492599
  30.2662094  15.9199280  49.2172599  29.3152094  16.9599280  48.6632599
  31.5742094  19.3339280  47.8522599  31.8822094  19.7809280  48.6402599
  32.2862094  19.4419280  47.2212599  31.6182094  16.6689280  40.7802599
  32.1872094  17.2689280  40.2982599  32.1372094  16.4049280  41.5402599
  27.6332094  14.1609280  46.5652599  27.8772094  13.3749280  47.0532599
  28.4682094  14.5359280  46.2822599  30.2282094  34.1349280  48.3622599
  29.4042094  34.5509280  48.1092599  30.2462094  33.3159280  47.8672599
   8.3912094  26.7679280  48.7732599   8.9742094  26.8959280  49.5222599
   7.6012094  26.3779280  49.1472599  31.9752094  10.5509280  46.5132599
  31.3712094   9.8079280  46.5262599  32.8452094  10.1519280  46.5182599
  34.9532094  22.0349280  44.4612599  34.9262094  22.2779280  45.3862599
  35.0882094  22.8629280  43.9992599  31.6922094  12.2219280  48.9512599
  31.8532094  11.5619280  48.2772599  32.5562094  12.3989280  49.3252599
  35.0792094  24.3959280  42.4282599  34.2502094  23.9309280  42.3092599
  35.4572094  24.4399280  41.5502599  11.5932094  19.3059280  41.6622599
  10.8872094  19.8789280  41.9612599  12.3112094  19.4699280  42.2742599
  34.4252094  13.4059280  48.6752599  34.5782094  14.3269280  48.8882599
  34.7482094  13.3109280  47.7792599  23.9732094  26.8569280  42.2952599
  23.9092094  25.9659280  41.9512599  24.6002094  27.2919280  41.7182599
  15.7012094  27.3609280  45.3082599  15.6322094  26.4309280  45.5242599
  15.0612094  27.4929280  44.6092599   8.1022094  20.6339280  44.1272599
   7.9542094  21.2959280  43.4522599   7.4322094  19.9699280  43.9632599
  30.2082094  16.8699280  44.1192599  30.4022094  17.8059280  44.0642599
  30.6252094  16.5859280  44.9332599  25.5842094  10.2029280  45.1212599
  25.3592094   9.4679280  45.6912599  26.5402094  10.2429280  45.1482599
   8.1662094  20.2199280  47.0802599   7.9932094  20.0049280  46.1632599
   8.0252094  19.3979280  47.5502599  30.2752094  14.4809280  42.9002599
  30.3052094  15.3989280  43.1692599  29.7642094  14.4839280  42.0912599
  26.6172094  37.4539280  41.4832599  27.5742094  37.4459280  41.4772599
  26.3772094  36.9339280  42.2502599  15.1102094   9.3649280  47.6752599
  15.5732094   9.8399280  48.3652599  14.7992094  10.0479280  47.0812599
  33.2502094  14.6379280  43.4872599  33.9632094  14.9119280  42.9102599
  32.6632094  14.1369280  42.9212599  32.5992094  29.2509280  42.1462599
  32.6872094  29.4359280  41.2112599  33.4112094  28.8009280  42.3792599
  36.5922094  18.2129280  41.8302599  36.9702094  18.0529280  40.9662599
  36.0752094  17.4279280  42.0152599  28.9512094  21.7969280  42.9982599
  28.9612094  22.1429280  42.1062599  28.1432094  21.2859280  43.0482599
  35.2182094  34.2059280  40.8152599  34.8392094  34.8199280  40.1852599
  35.9782094  34.6669280  41.1702599  35.9472094  36.6199280  43.6622599
  36.0632094  35.7209280  43.9702599  36.6652094  36.7579280  43.0452599
  29.6202094  32.9069280  41.4332599  28.8442094  32.8349280  41.9892599
  29.6932094  32.0509280  41.0112599  26.7442094  27.6949280  45.4062599
  27.0152094  26.9369280  44.8892599  26.7592094  28.4249280  44.7872599
  34.1272094  19.0069280  46.1622599  34.4842094  19.8719280  46.3602599
  34.7302094  18.6409280  45.5142599   8.9012094  13.1839280  44.8412599
   8.5802094  12.7669280  44.0412599   8.2732094  12.9249280  45.5152599
  33.8992094  37.3299280  41.8382599  34.7192094  36.9789280  42.1852599
  33.5192094  37.8189280  42.5682599  31.3632094  26.9449280  42.3802599
  31.7212094  27.8099280  42.1792599  32.0152094  26.5429280  42.9552599
  35.0762094  11.3749280  41.4032599  34.3262094  10.8019280  41.5642599
  34.7582094  12.2519280  41.6142599  31.1882094  13.1429280  45.6852599
  31.0722094  12.9589280  44.7532599  31.4352094  12.3009280  46.0672599
  12.4652094  19.9919280  48.1622599  12.0322094  19.3589280  48.7362599
  12.7622094  20.6849280  48.7512599  34.6612094  16.7319280  47.9912599
  34.2662094  17.4919280  47.5632599  34.6402094  16.0449280  47.3252599
  11.8262094  16.6419280  40.9752599  11.7372094  17.5779280  41.1542599
  12.7672094  16.4759280  41.0302599  10.9732094  11.5749280  46.1552599
  11.9272094  11.6519280  46.1882599  10.6902094  12.3199280  45.6252599
  25.7032094  34.1369280  41.3312599  25.8002094  35.0389280  41.6372599
  26.3842094  34.0359280  40.6652599  29.7342094  24.0129280  44.9022599
  29.0762094  24.5239280  44.4302599  29.6772094  23.1369280  44.5212599
  29.1582094  38.1669280  44.9042599  28.6792094  38.9889280  45.0002599
  29.4802094  37.9719280  45.7842599  23.4242094  11.0289280  47.6502599
  23.6852094  10.1529280  47.3672599  24.2442094  11.4559280  47.8962599
  27.5162094  32.5439280  43.4382599  26.7922094  33.0329280  43.0492599
  27.4372094  32.7059280  44.3782599  34.3362094  29.8509280  48.7402599
  34.2042094  30.4349280  49.4872599  33.5532094  29.3009280  48.7232599
  28.3012094  10.5469280  45.3532599  28.2982094  11.0959280  46.1382599
  28.7482094  11.0759280  44.6922599   9.2672094  36.7699280  44.1222599
   8.8352094  37.2109280  43.3912599   9.6542094  37.4799280  44.6352599
  24.6462094  28.0509280  47.5472599  23.7582094  27.7059280  47.6412599
  24.9082094  27.7999280  46.6612599  27.1192094  31.9829280  46.0662599
  26.6462094  31.1509280  46.0832599  28.0332094  31.7419280  46.2172599
  28.7132094  35.4599280  44.5482599  29.0202094  35.1389280  43.7002599
  28.9882094  36.3769280  44.5712599  31.2992094  30.2619280  44.3492599
  31.9442094  30.8849280  44.6832599  31.6242094  30.0209280  43.4822599
  32.5102094  24.9559280  44.3442599  32.6172094  24.2999280  43.6552599
  31.6762094  24.7339280  44.7592599  26.9002094  29.9759280  48.2052599
  26.3052094  29.3079280  47.8642599  27.6982094  29.4959280  48.4242599
  34.6582094  34.2719280  47.1212599  34.9452094  33.3689280  47.2512599
  34.5832094  34.3659280  46.1712599  32.7032094  10.5769280  42.8882599
  31.8842094  11.0699280  42.8432599  32.4662094   9.7549280  43.3172599
  35.0252094  24.9139280  45.5752599  34.3522094  24.8809280  44.8952599
  35.4142094  25.7849280  45.4862599  31.8152094  38.1489280  43.8792599
  30.8682094  38.0359280  43.9552599  32.1692094  37.7399280  44.6692599
  31.3422094  36.9049280  49.2852599  32.1742094  36.4319280  49.3002599
  30.7112094  36.2919280  49.6622599  34.8172094  36.7789280  48.2002599
  34.7542094  35.8269280  48.1192599  34.7422094  36.9439280  49.1402599
  35.8302094  31.8529280  42.7462599  36.7342094  32.1579280  42.8142599
  35.4172094  32.4599280  42.1322599  22.6482094  31.8979280  43.6502599
  23.1312094  31.7159280  42.8442599  22.5532094  31.0429280  44.0702599
  32.3542094  33.5949280  42.4252599  31.4432094  33.3039280  42.4412599
  32.5752094  33.6409280  41.4952599  28.3412094  35.6019280  47.1622599
  28.6062094  35.3749280  46.2712599  28.7232094  36.4659280  47.3142599
  35.8792094  27.6369280  44.4762599  36.7472094  27.2589280  44.3312599
  35.3492094  27.3039280  43.7522599  34.5072094  27.3259280  42.1562599
  35.0002094  27.6109280  41.3862599  34.5342094  26.3699280  42.1182599
   7.3582094  34.3079280  44.2562599   7.7902094  33.7659280  43.5952599
   8.0312094  34.9289280  44.5342599  29.0942094  28.7009280  48.9002599
  28.9792094  27.7569280  49.0032599  29.5992094  28.7949280  48.0932599
  34.5442094   9.6159280  46.8812599  34.8182094  10.0989280  46.1012599
  35.2012094   8.9269280  46.9802599  36.6922094  18.0449280  44.5532599
  36.4242094  17.8769280  43.6502599  37.5262094  17.5849280  44.6462599
   7.3162094   8.7149280  46.7582599   7.3212094   8.6429280  45.8032599
   7.8612094   7.9869280  47.0562599  24.9902094   9.9339280  42.6292599
  25.0052094   9.7439280  43.5672599  25.1832094   9.0939280  42.2112599
  28.4722094  29.8769280  43.8172599  29.3782094  30.0379280  44.0802599
  28.1162094  30.7469280  43.6402599   7.7382094  31.4689280  49.0002599
   7.3732094  31.8739280  48.2142599   7.0442094  31.5469280  49.6552599
  33.2662094  37.0919280  45.9412599  33.7052094  37.3819280  46.7412599
  33.7182094  36.2829280  45.7002599  29.1862094  35.9829280  41.6322599
  30.1112094  36.0479280  41.3952599  28.9152094  35.1249280  41.3052599
  24.8002094  29.1809280  43.8382599  24.6022094  28.3299280  43.4462599
  24.9602094  29.7569280  43.0912599  10.9832094  11.0759280  42.1502599
  10.3462094  11.5339280  41.6012599  10.4562094  10.4899280  42.6922599
  33.3452094  34.8399280  44.5232599  32.8542094  35.6489280  44.6662599
  32.9972094  34.4909280  43.7032599   9.8912094  29.5969280  41.1492599
   9.0502094  30.0549280  41.1582599  10.0772094  29.4569280  40.2202599
  30.7802094  28.8819280  46.7172599  31.6422094  28.4829280  46.8362599
  30.8112094  29.2659280  45.8412599  29.5032094   9.0389280  40.6342599
  30.0362094   8.7619280  41.3792599  30.1392094   9.2529280  39.9512599
   8.0562094  14.6529280  41.5192599   8.3852094  15.1069280  40.7432599
   8.8002094  14.6339280  42.1202599  28.4752094  43.6989280  10.5452599
  27.7282094  43.3899280  11.0582599  28.1072094  44.3619280   9.9612599
  28.3122094  39.5849280   2.3492599  28.1522094  38.7359280   1.9372599
  28.8222094  40.0739280   1.7032599  13.0662094  45.4049280 -10.6847401
  12.6012094  44.6079280 -10.9377401  13.0902094  45.9319280 -11.4837401
  16.2512094  47.1179280  -1.5597401  15.6452094  46.6849280  -0.9577401
  16.5812094  46.4119280  -2.1157401   9.7202094  45.5989280   9.4612599
  10.4612094  46.0109280   9.9072599  10.0502094  45.3959280   8.5862599
  35.2242094  43.9989280 -13.8367401  34.2842094  44.1189280 -13.9727401
  35.4032094  43.1149280 -14.1557401  25.6192094  43.2929280   5.6602599
  25.3022094  42.9499280   6.4952599  25.5592094  42.5519280   5.0572599
   8.7762094  46.3039280 -14.2477401   9.1002094  45.5159280 -14.6827401
   9.5622094  46.7299280 -13.9047401  11.5652094  40.1309280  -2.7477401
  10.6342094  40.2679280  -2.9217401  11.9552094  40.0069280  -3.6127401
  18.2062094  40.6169280  -1.2397401  17.9442094  41.5379280  -1.2467401
  18.8792094  40.5639280  -0.5617401  22.3422094  39.1159280 -10.5137401
  21.9522094  39.8639280 -10.9657401  22.2772094  38.3959280 -11.1407401
  15.5412094  44.8199280 -15.8837401  16.2052094  45.3419280 -16.3337401
  15.1752094  45.4129280 -15.2267401  16.2732094  41.2429280  -7.0847401
  16.4532094  41.6989280  -7.9067401  16.9602094  41.5419280  -6.4877401
  29.6422094  42.0409280 -16.7217401  28.8692094  42.0109280 -17.2857401
  29.9852094  42.9279280 -16.8327401  14.3952094  46.6389280  10.4662599
  14.5472094  47.1779280  11.2422599  15.2522094  46.5769280  10.0452599
  11.8742094  42.0469280  -7.0387401  11.0212094  42.3859280  -7.3127401
  12.4182094  42.8269280  -6.9317401  22.7582094  42.9379280   3.8222599
  23.3102094  43.5789280   3.3742599  22.4542094  42.3549280   3.1272599
  19.1292094  43.3669280  -0.9547401  19.9982094  43.7529280  -1.0617401
  18.9532094  43.4279280  -0.0157401  16.5782094  44.4339280  -5.8257401
  15.6552094  44.2569280  -5.6447401  16.7322094  44.0459280  -6.6867401
  19.9142094  43.1779280  -6.3507401  20.7432094  42.7119280  -6.4627401
  19.5572094  42.8369280  -5.5297401  18.4652094  47.0879280 -10.0357401
  18.5282094  46.3789280  -9.3947401  17.8602094  47.7149280  -9.6417401
  13.1942094  39.3159280 -14.9227401  14.0432094  38.9069280 -15.0917401
  13.3482094  40.2509280 -15.0547401  19.3782094  41.4629280 -12.7367401
  19.7702094  41.9429280 -12.0067401  20.0132094  40.7759280 -12.9417401
  10.9802094  44.3649280  -0.8397401  11.7232094  43.8299280  -1.1177401
  10.2292094  43.9899280  -1.3007401  14.4522094  43.9229280  -8.6157401
  13.8372094  44.5009280  -9.0677401  14.8282094  43.3819280  -9.3097401
  11.6772094  42.7509280 -10.7747401  11.0062094  42.1129280 -10.5347401
  11.9392094  42.5029280 -11.6607401  19.8032094  41.1779280 -16.7397401
  19.4352094  41.5479280 -17.5417401  20.4622094  41.8149280 -16.4617401
  22.8262094  45.0479280 -10.3987401  22.8072094  45.0479280  -9.4417401
  23.7282094  45.2819280 -10.6197401   8.7632094  40.2729280  -7.0067401
   8.8572094  39.8339280  -7.8517401   8.9682094  41.1899280  -7.1877401
  17.3302094  46.9799280 -16.4397401  17.9872094  47.0409280 -17.1327401
  17.7812094  47.2889280 -15.6537401  17.1602094  40.0569280 -10.2197401
  18.0732094  40.2199280 -10.4567401  17.2032094  39.6909280  -9.3367401
  11.6572094  45.4269280   1.7092599  11.5632094  45.1529280   0.7962599
  11.6472094  46.3829280   1.6752599  24.5212094  39.7509280  -2.0137401
  24.3332094  40.6009280  -1.6157401  23.7792094  39.1999280  -1.7657401
  15.6892094  42.5739280 -10.7737401  16.0502094  42.8899280 -11.6017401
  16.1682094  41.7639280 -10.5967401  11.3592094  46.4759280 -12.8277401
  10.7872094  46.7669280 -12.1177401  11.5102094  47.2619280 -13.3527401
  16.9592094  41.3199280 -13.7447401  17.8082094  41.1709280 -13.3267401
  16.9872094  40.7909280 -14.5417401  20.1792094  44.5149280   1.5192599
  20.4542094  45.4289280   1.4482599  20.6422094  44.1849280   2.2892599
  22.1942094  45.5529280   8.6622599  22.4192094  45.4779280   9.5892599
  21.3372094  45.1329280   8.5882599  36.2582094  40.8039280  -5.8057401
  36.3772094  41.1589280  -4.9247401  37.1472094  40.6629280  -6.1307401
   9.6572094  40.7049280  -9.8997401   9.1082094  41.4429280 -10.1667401
   9.0692094  39.9499280  -9.9187401  15.2072094  39.4869280  -5.3227401
  15.3742094  40.2399280  -5.8897401  15.7722094  39.6299280  -4.5617401
  26.1782094  46.7829280 -13.4167401  27.0962094  46.8139280 -13.1457401
  26.0322094  45.8709280 -13.6657401  20.6312094  38.9999280 -14.2607401
  21.4482094  38.9789280 -13.7637401  20.9052094  38.9459280 -15.1767401
  21.9192094  43.4659280 -12.6497401  22.4752094  42.6899280 -12.7187401
  22.4552094  44.1049280 -12.1797401  11.6192094  38.4059280 -10.2337401
  12.1412094  38.7649280  -9.5167401  10.8952094  39.0239280 -10.3367401
  35.9892094  45.1879280  -4.2687401  35.7822094  44.7759280  -5.1067401
  35.1652094  45.5869280  -3.9877401   9.3812094  40.8689280  -4.3657401
   9.1732094  40.4509280  -5.2017401   9.9462094  41.6059280  -4.6007401
  27.5412094  39.6279280  -4.9917401  28.4322094  39.5009280  -5.3177401
  27.5152094  40.5449280  -4.7167401  13.1482094  39.7319280  -8.5467401
  13.8962094  40.3269280  -8.5027401  12.3892094  40.2859280  -8.3627401
  25.1512094  43.2139280 -19.0517401  24.2392094  43.4819280 -18.9357401
  25.3852094  42.7949280 -18.2227401  13.5692094  42.3139280 -13.1077401
  14.0112094  42.5969280 -12.3077401  13.9642094  42.8439280 -13.8007401
  17.7202094  43.2729280  -8.3007401  17.6342094  43.9439280  -8.9787401
  18.5672094  43.4509280  -7.8927401  25.0442094  44.2329280 -13.0657401
  25.9612094  44.0479280 -13.2677401  24.5552094  43.8429280 -13.7897401
  32.0082094  45.8659280 -10.7757401  32.1182094  45.1669280 -11.4207401
  32.6862094  46.5039280 -10.9957401  23.5942094  42.0649280  -0.3377401
  24.2972094  42.7149280  -0.3407401  23.3842094  41.9429280   0.5882599
  18.8322094  46.5629280   4.2212599  19.1072094  45.9299280   4.8852599
  19.1182094  47.4089280   4.5652599  20.6752094  46.7959280  -1.6037401
  19.7592094  46.9089280  -1.3477401  20.9052094  47.6159280  -2.0407401
  12.5632094  44.2869280 -14.8457401  13.1252094  45.0289280 -15.0687401
  12.3142094  44.4399280 -13.9337401  24.2462094  42.7269280 -15.6917401
  24.5102094  41.8639280 -15.3727401  23.5202094  42.5489280 -16.2907401
  16.4872094  43.1849280  -2.7067401  15.6652094  43.2019280  -3.1967401
  16.2182094  43.1459280  -1.7887401  36.0182094  45.7079280 -17.0977401
  36.0572094  45.4139280 -16.1877401  36.7272094  45.2329280 -17.5327401
  20.0192094  44.5319280   6.4702599  19.4092094  45.2359280   6.6882599
  19.4772094  43.8679280   6.0442599  25.0242094  44.2369280  -1.0337401
  25.9272094  44.0559280  -1.2967401  24.9732094  45.1919280  -0.9907401
  12.8512094  46.6109280  -1.1337401  13.4502094  46.3149280  -0.4477401
  12.3762094  45.8219280  -1.3937401  13.0982094  44.6999280   3.7902599
  13.0512094  43.7439280   3.7752599  12.4452094  44.9829280   3.1512599
  19.2672094  40.7239280   6.2692599  19.0822094  40.7779280   7.2062599
  18.8622094  41.5079280   5.8982599  27.3032094  42.2729280  -4.3587401
  27.7952094  42.9369280  -4.8417401  26.4512094  42.2419280  -4.7937401
  12.8832094  44.9969280   8.5792599  13.4602094  45.2199280   7.8492599
  13.4172094  45.1429280   9.3602599  17.3072094  40.1989280 -15.9737401
  16.7572094  40.2699280 -16.7547401  18.1612094  40.5299280 -16.2517401
  14.3422094  45.5759280   6.1552599  13.8612094  45.4619280   5.3362599
  14.4612094  46.5219280   6.2342599  31.9552094  44.5059280  -2.2397401
  31.0162094  44.4659280  -2.4217401  32.3692094  44.1769280  -3.0377401
  18.6102094  39.8499280   2.9782599  18.9852094  39.7309280   3.8512599
  19.3602094  40.0559280   2.4202599  11.5612094  40.4709280   3.2062599
  12.2322094  41.0229280   3.6092599  10.9412094  41.0899280   2.8222599
   8.9622094  39.0619280   9.5502599   9.7622094  39.5079280   9.8282599
   8.2952094  39.7489280   9.5422599  17.9992094  42.9459280   5.3202599
  17.1002094  43.0089280   5.6432599  17.9092094  42.8999280   4.3682599
  14.5982094  46.6829280   3.1532599  14.1912094  45.8249280   3.2712599
  14.0852094  47.0989280   2.4602599  13.1462094  40.9219280  10.2662599
  12.5902094  40.8499280  11.0412599  12.6622094  40.4639280   9.5792599
  36.1212094  38.3409280   7.9822599  36.4912094  39.0849280   8.4572599
  36.6462094  38.2799280   7.1842599  26.0142094  41.9669280   2.9642599
  26.0462094  41.0529280   3.2482599  26.5242094  41.9839280   2.1542599
  21.8452094  40.0799280   4.9422599  22.4862094  39.9869280   5.6472599
  21.0782094  40.4659280   5.3652599  14.3982094  46.4419280 -13.9997401
  13.8292094  47.1939280 -13.8347401  15.1562094  46.5849280 -13.4337401
  37.3032094  46.6009280  -7.9637401  37.3802094  45.6869280  -8.2387401
  36.4812094  46.8999280  -8.3517401  14.0962094  43.0059280  -3.9147401
  13.6142094  43.5579280  -4.5297401  13.4692094  42.8209280  -3.2157401
  22.4382094  46.7149280   5.9472599  21.7242094  46.0819280   6.0182599
  22.9092094  46.6399280   6.7772599  22.6302094  38.5969280  -6.1567401
  23.2952094  37.9469280  -5.9277401  22.7752094  39.3159280  -5.5427401
  12.3022094  42.4419280   7.4872599  11.3742094  42.5769280   7.2962599
  12.5362094  43.1659280   8.0672599  28.7292094  40.7149280   4.9202599
  28.3822094  40.5519280   4.0432599  28.6302094  39.8799280   5.3772599
  10.7442094  45.6269280   6.6582599  11.5442094  45.1079280   6.7422599
  10.5982094  45.6909280   5.7142599  35.6202094  39.7529280  -1.6137401
  35.5632094  38.8289280  -1.3697401  35.5662094  40.2239280  -0.7817401
  23.0212094  41.7469280 -17.8927401  23.5802094  40.9709280 -17.9307401
  22.6762094  41.8379280 -18.7807401   8.0622094  41.8539280   4.5742599
   7.7432094  40.9769280   4.3632599   8.8252094  41.9749280   4.0082599
  17.7062094  45.6139280  -3.4587401  17.7312094  44.7599280  -3.0267401
  17.3282094  45.4359280  -4.3197401  22.7452094  42.6249280   6.7292599
  22.0502094  43.2829280   6.7402599  22.9782094  42.5369280   5.8052599
  16.5652094  46.5199280   8.8712599  15.9892094  46.6129280   8.1122599
  17.3742094  46.9619280   8.6142599  15.1342094  45.5329280   0.3502599
  15.1112094  44.5769280   0.3232599  15.9742094  45.7419280   0.7602599
   8.3092094  44.4899280  -9.7447401   7.8362094  44.7569280 -10.5327401
   9.1082094  45.0169280  -9.7537401   9.3552094  43.1129280  -7.2957401
   8.8792094  43.4539280  -8.0527401   9.0312094  43.6269280  -6.5567401
  21.0472094  45.1749280 -16.9157401  20.2552094  45.6379280 -17.1917401
  20.7382094  44.5299280 -16.2797401  20.2782094  43.5619280 -14.7217401
  20.8702094  43.5529280 -13.9697401  19.5852094  42.9439280 -14.4887401
  16.3542094  43.8739280 -13.6377401  16.0382094  44.1069280 -14.5107401
  16.6062094  42.9539280 -13.7107401  20.0432094  40.4879280  -9.7777401
  20.8212094  39.9919280  -9.5217401  19.8262094  41.0099280  -9.0057401
  27.2732094  41.4679280 -17.9677401  27.6202094  40.7839280 -18.5407401
  26.4122094  41.1439280 -17.7027401  35.3642094  40.8579280   0.7652599
  34.5622094  40.6449280   1.2432599  35.6162094  41.7219280   1.0902599
   8.1792094  38.4309280   6.3512599   8.9642094  38.5019280   5.8082599
   8.4292094  38.8249280   7.1872599  17.6202094  39.8799280  -3.6637401
  17.7862094  39.9079280  -2.7207401  17.8952094  40.7399280  -3.9807401
  33.5252094  46.9569280  -4.6787401  33.1192094  47.8239280  -4.6587401
  32.7872094  46.3469280  -4.6857401  20.8312094  38.8789280 -17.5387401
  20.0502094  38.6559280 -18.0447401  20.8362094  39.8359280 -17.5127401
  10.3612094  39.0189280 -14.8117401  11.3162094  39.0859280 -14.8177401
  10.0652094  39.8439280 -14.4277401  20.1382094  39.7409280  -6.8507401
  20.7612094  39.0409280  -6.6537401  19.2942094  39.3999280  -6.5557401
  14.3872094  40.6209280   0.4112599  14.9392094  39.8549280   0.2542599
  13.6362094  40.2799280   0.8982599  34.5402094  38.7459280  -6.5527401
  34.6972094  38.1089280  -5.8557401  35.1242094  39.4759280  -6.3467401
  15.5452094  42.6139280 -17.5257401  15.6362094  43.2569280 -16.8227401
  14.7242094  42.1599280 -17.3317401  10.6282094  44.6169280 -17.4807401
  11.1902094  45.2839280 -17.8757401  11.1632094  44.2349280 -16.7847401
   7.3242094  41.9949280 -13.5487401   7.1792094  41.0809280 -13.7907401
   7.2602094  42.0029280 -12.5937401  27.0912094  38.7269280   6.9292599
  26.4942094  38.4889280   7.6382599  27.4832094  39.5529280   7.2122599
  15.8832094  43.3719280   6.8332599  15.7532094  43.2709280   7.7762599
  15.1542094  43.9229280   6.5472599  12.2422094  39.4359280   8.2312599
  12.4242094  40.2449280   7.7542599  12.1112094  38.7789280   7.5472599
  15.6472094  40.9899280   5.5432599  15.2792094  40.2479280   6.0222599
  15.6562094  41.7049280   6.1792599  33.9582094  42.1009280   3.3412599
  33.9602094  41.2729280   3.8212599  34.5422094  42.6699280   3.8412599
  17.1062094  41.9899280   2.4382599  16.3022094  41.8969280   2.9492599
  17.6962094  41.3259280   2.7942599  18.0322094  40.6269280   8.7432599
  17.1522094  40.4279280   8.4232599  17.9082094  40.8459280   9.6662599
  23.0662094  40.5399280   2.3132599  22.7022094  40.3919280   3.1862599
  23.9702094  40.2319280   2.3752599  21.7222094  41.7929280   9.3512599
  21.3592094  40.9239280   9.1752599  22.2412094  41.9969280   8.5732599
  20.2522094  39.9899280   0.6142599  21.1522094  40.0399280   0.9372599
  20.1272094  39.0669280   0.3942599  15.4402094  39.7029280   8.7572599
  14.7832094  39.8439280   9.4392599  15.3762094  38.7689280   8.5532599
  25.6742094  46.4639280 -17.7787401  26.3872094  46.8179280 -17.2477401
  25.2382094  47.2359280 -18.1407401  32.2812094  41.4489280   6.0182599
  31.9472094  41.1299280   5.1802599  32.8242094  40.7329280   6.3482599
  16.2732094  39.6119280 -18.2107401  15.5892094  38.9419280 -18.2347401
  15.8602094  40.3899280 -18.5837401  12.6892094  38.6119280   1.5112599
  12.3392094  39.2389280   2.1442599  12.5512094  37.7569280   1.9202599
  21.8582094  46.2319280 -14.0307401  22.5502094  46.1109280 -14.6807401
  21.5872094  45.3429280 -13.8017401  19.4302094  44.7819280 -11.5087401
  20.2512094  44.3549280 -11.7517401  18.7642094  44.3379280 -12.0337401
  17.9612094  44.6469280  10.5802599  18.3082094  45.3249280  11.1592599
  17.3412094  45.1079280  10.0142599  26.5642094  45.9819280  -6.5937401
  26.7512094  46.4149280  -7.4267401  26.1672094  46.6639280  -6.0517401
  34.6662094  42.4299280  -8.7327401  34.5242094  42.7299280  -9.6297401
  34.9012094  41.5059280  -8.8217401  31.0292094  46.3469280  -8.2527401
  30.4522094  46.9209280  -8.7557401  31.6902094  46.0599280  -8.8827401
  31.3272094  39.7859280  -8.4437401  30.4112094  39.9049280  -8.1937401
  31.2972094  39.1779280  -9.1817401   7.2482094  45.1639280  -1.8027401
   7.9662094  45.7679280  -1.6137401   6.9052094  45.4569280  -2.6467401
  25.8102094  43.3259280  -6.8777401  26.3802094  42.9189280  -7.5307401
  26.1842094  44.1969280  -6.7417401  34.9482094  41.2209280 -15.4367401
  35.4032094  40.4539280 -15.7847401  34.2282094  41.3709280 -16.0487401
  23.0572094  45.4529280 -18.7257401  22.3902094  45.2879280 -18.0587401
  23.6442094  46.0929280 -18.3247401  33.1272094  43.8719280  -4.6177401
  33.3462094  44.2749280  -5.4577401  32.9502094  42.9559280  -4.8297401
  32.6382094  45.4059280 -13.8867401  32.0732094  44.6429280 -14.0077401
  32.9512094  45.6149280 -14.7677401  23.8952094  45.4419280 -15.4997401
  24.3842094  45.9509280 -16.1467401  23.9722094  44.5359280 -15.7997401
  12.8032094  42.3519280  -1.4237401  13.3172094  41.8509280  -0.7917401
  12.2972094  41.6919280  -1.8987401  32.4842094  44.0529280   0.3532599
  33.3592094  43.7179280   0.1572599  32.1092094  44.2599280  -0.5027401
  17.6952094  45.5709280   1.5282599  18.5352094  45.2289280   1.2202599
  17.8162094  45.6909280   2.4702599  36.7202094  39.1359280 -16.0097401
  37.3832094  39.1989280 -16.6967401  36.3302094  38.2699280 -16.1317401
   7.7462094  41.8729280 -17.2797401   8.0912094  42.3779280 -18.0157401
   6.8072094  41.8059280 -17.4537401  25.2042094  45.4429280   7.8332599
  24.5132094  44.9969280   8.3222599  25.2872094  44.9409280   7.0222599
  33.9302094  42.0499280  -1.5237401  33.6532094  42.5189280  -2.3107401
  33.2342094  41.4129280  -1.3657401  27.0832094  46.2189280   9.8482599
  26.6432094  45.9539280   9.0402599  26.4612094  46.0049280  10.5422599
  28.4542094  39.1919280 -10.8027401  28.5872094  39.5359280  -9.9197401
  27.7792094  38.5209280 -10.6987401  31.3712094  42.8659280   9.8892599
  31.1072094  43.4579280   9.1852599  30.6222094  42.8539280  10.4862599
  34.2082094  39.0509280   3.9702599  33.2992094  38.8089280   3.7912599
  34.6462094  38.2199280   4.1542599  30.5502094  43.4809280  -7.5707401
  30.9522094  44.3169280  -7.8087401  31.2912094  42.9009280  -7.3927401
  32.1632094  39.4649280   0.7272599  31.8602094  39.8329280  -0.1027401
  31.6632094  39.9339280   1.3952599  33.5092094  45.9289280   4.5562599
  33.4892094  45.1889280   5.1622599  34.2922094  46.4209280   4.8042599
   7.2182094  44.7709280 -12.0967401   6.6402094  44.3299280 -12.7207401
   7.8962094  45.1729280 -12.6407401  12.5982094  40.0749280  -5.2847401
  13.5402094  39.9819280  -5.4317401  12.3072094  40.6809280  -5.9657401
  19.2282094  42.2249280 -19.0767401  18.6362094  42.9479280 -19.2837401
  19.9032094  42.2659280 -19.7547401  31.6472094  40.5229280  -1.8197401
  31.8852094  40.6199280  -2.7417401  31.1072094  39.7329280  -1.7927401
  15.7372094  42.8349280   0.0422599  16.3442094  42.5319280   0.7182599
  15.0022094  42.2229280   0.0892599  34.8612094  45.6659280   9.1072599
  35.3802094  46.4399280   8.8872599  34.7012094  45.2359280   8.2672599
  28.4212094  40.1659280  -8.3357401  28.2442094  40.1839280  -7.3957401
  28.2852094  41.0689280  -8.6227401  29.3042094  44.6599280  -2.9247401
  28.7632094  45.2539280  -2.4047401  28.8682094  44.6199280  -3.7757401
  35.1822094  39.9799280 -10.0897401  34.8562094  39.2099280  -9.6247401
  34.7732094  39.9299280 -10.9537401   9.8832094  42.5259280   2.4852599
   9.4932094  42.0229280   1.7702599  10.1872094  43.3339280   2.0702599
  19.3272094  45.8919280  -7.1637401  20.2672094  45.8669280  -7.3427401
  19.1542094  45.0859280  -6.6777401   9.1542094  46.6879280  -0.9587401
  10.0052094  47.0919280  -0.7907401   8.5962094  46.9979280  -0.2457401
  34.6912094  44.3939280  -6.7097401  34.8222094  43.5689280  -7.1777401
  34.6202094  45.0529280  -7.4007401  13.2532094  41.9409280 -16.0507401
  12.9002094  42.8049280 -15.8367401  12.5632094  41.5219280 -16.5657401
  27.3502094  41.6849280 -12.2117401  27.9762094  41.1189280 -11.7587401
  26.6162094  41.7659280 -11.6037401  29.3522094  46.2039280 -10.7507401
  30.2662094  45.9199280 -10.7827401  29.3152094  46.9599280 -11.3367401
  31.6182094  46.6689280 -19.2197401  32.1872094  47.2689280 -19.7017401
  32.1372094  46.4049280 -18.4597401  27.6332094  44.1609280 -13.4347401
  27.8772094  43.3749280 -12.9467401  28.4682094  44.5359280 -13.7177401
  22.2582094  41.5459280  -7.4127401  23.1182094  41.1379280  -7.5157401
  21.7642094  40.9319280  -6.8687401  31.9752094  40.5509280 -13.4867401
  31.3712094  39.8079280 -13.4737401  32.8452094  40.1519280 -13.4817401
  31.6922094  42.2219280 -11.0487401  31.8532094  41.5619280 -11.7227401
  32.5562094  42.3989280 -10.6747401  28.6082094  44.3949280  -5.6597401
  27.9322094  44.8899280  -6.1227401  29.2262094  44.1359280  -6.3437401
  34.4252094  43.4059280 -11.3247401  34.5782094  44.3269280 -11.1117401
  34.7482094  43.3109280 -12.2207401  30.4462094  38.9049280  -5.1607401
  30.8912094  38.1979280  -5.6277401  31.1362094  39.5409280  -4.9737401
  23.4492094  44.0989280  -7.5807401  24.3432094  43.7889280  -7.4407401
  22.9142094  43.3059280  -7.5597401  32.4482094  40.9579280  -4.2357401
  33.3472094  40.6339280  -4.1717401  32.3002094  41.0709280  -5.1747401
  30.2082094  46.8699280 -15.8807401  30.4022094  47.8059280 -15.9357401
  30.6252094  46.5859280 -15.0667401  25.5842094  40.2029280 -14.8787401
  25.3592094  39.4679280 -14.3087401  26.5402094  40.2429280 -14.8517401
  27.0972094  46.8029280  -9.3197401  27.0972094  47.6869280  -9.6867401
  27.8012094  46.3509280  -9.7827401  25.7322094  44.6709280 -10.4397401
  25.8742094  44.7409280 -11.3837401  26.0462094  45.5029280 -10.0867401
  24.7702094  40.5529280  -7.6867401  24.7232094  40.3609280  -6.7497401
  24.6292094  39.7079280  -8.1117401  30.2752094  44.4809280 -17.0997401
  30.3052094  45.3989280 -16.8307401  29.7642094  44.4839280 -17.9087401
  30.2802094  43.0169280   7.2312599  30.9802094  42.5889280   6.7392599
  29.6432094  43.2769280   6.5662599  37.1872094  41.7479280 -10.6507401
  36.4752094  41.1229280 -10.5137401  36.8112094  42.5959280 -10.4167401
  15.1102094  39.3649280 -12.3247401  15.5732094  39.8399280 -11.6347401
  14.7992094  40.0479280 -12.9187401  33.2502094  44.6379280 -16.5127401
  33.9632094  44.9119280 -17.0897401  32.6632094  44.1369280 -17.0787401
  35.5532094  43.9029280  -0.0847401  35.9912094  44.4289280  -0.7537401
  35.2472094  43.1259280  -0.5527401  20.8932094  39.2439280   9.4082599
  19.9962094  39.1109280   9.7132599  21.4322094  39.1279280  10.1912599
  28.1292094  42.8199280  -1.6307401  27.7692094  42.3419280  -2.3777401
  28.7112094  43.4719280  -2.0217401  31.3002094  40.1709280   8.7292599
  31.9682094  39.8659280   8.1152599  31.5932094  41.0449280   8.9872599
   7.8702094  42.9169280   7.1942599   8.0092094  42.7709280   6.2592599
   8.0642094  43.8449280   7.3242599  28.3812094  43.4359280   5.0222599
  27.5372094  43.6999280   5.3872599  28.4432094  42.4999280   5.2122599
  33.7312094  44.0149280   6.5532599  33.0082094  43.4019280   6.4202599
  34.5102094  43.5299280   6.2802599   9.8362094  45.5079280   3.9442599
  10.1032094  46.3199280   3.5122599   9.2912094  45.0599280   3.2962599
  34.1962094  46.1899280   1.5242599  34.3512094  46.0029280   2.4502599
  33.3622094  45.7609280   1.3302599  29.3742094  45.7849280   3.8482599
  29.8202094  45.6659280   3.0102599  29.1722094  44.8959280   4.1412599
   8.9012094  43.1839280 -15.1587401   8.5802094  42.7669280 -15.9587401
   8.2732094  42.9249280 -14.4847401  35.0762094  41.3749280 -18.5967401
  34.3262094  40.8019280 -18.4357401  34.7582094  42.2519280 -18.3857401
  24.7762094  44.3809280   2.4792599  25.1142094  43.4869280   2.5292599
  25.4272094  44.8559280   1.9622599  25.8202094  42.2289280   8.3132599
  26.6332094  41.7309280   8.2282599  25.7732094  42.4559280   9.2422599
  27.2552094  45.0379280   1.2912599  27.5982094  44.1759280   1.0562599
  28.0342094  45.5729280   1.4432599  36.6012094  41.6019280  -3.3137401
  36.4242094  40.8209280  -2.7887401  36.0942094  42.2949280  -2.8897401
  25.0672094  46.0609280   4.7362599  24.9452094  45.1119280   4.7062599
  24.2032094  46.4069280   4.9622599  37.0372094  41.0299280   9.3222599
  36.4992094  41.3599280  10.0412599  36.9072094  41.6619280   8.6152599
  31.1882094  43.1429280 -14.3147401  31.0722094  42.9589280 -15.2467401
  31.4352094  42.3009280 -13.9327401  35.8852094  43.4169280   4.5872599
  36.4162094  44.1009280   4.9962599  36.4582094  42.6509280   4.5622599
   9.7042094  42.2269280   9.6082599   9.5272094  43.1659280   9.6512599
   9.1922094  41.9189280   8.8602599  30.2842094  45.5299280   1.3462599
  30.7592094  46.2259280   0.8922599  30.7702094  44.7319280   1.1362599
   7.3082094  45.6099280   5.6502599   8.1882094  45.7439280   5.2962599
   6.8652094  46.4479280   5.5152599  28.4702094  42.6489280  -9.1487401
  29.3582094  42.8669280  -8.8657401  28.1442094  43.4529280  -9.5547401
  13.2392094  44.4749280  -6.3957401  13.9492094  44.3619280  -7.0277401
  13.1672094  45.4219280  -6.2817401  31.3012094  42.1519280   1.7372599
  31.7752094  42.9119280   1.3982599  31.7292094  41.9549280   2.5702599
  20.9292094  44.8889280  -3.7467401  21.4322094  45.2839280  -4.4587401
  20.6152094  45.6339280  -3.2337401  24.4032094  40.6779280  -5.1227401
  24.6442094  40.1199280  -4.3827401  24.1832094  41.5209280  -4.7257401
  13.3632094  42.0819280   4.4752599  14.2192094  41.8699280   4.8482599
  12.8142094  42.2809280   5.2332599  34.6612094  46.7319280 -12.0087401
  34.2662094  47.4919280 -12.4367401  34.6402094  46.0449280 -12.6747401
  11.8262094  46.6419280 -19.0247401  11.7372094  47.5779280 -18.8457401
  12.7672094  46.4759280 -18.9697401  10.7662094  43.7299280  -4.6627401
  11.4742094  44.1829280  -5.1217401  10.0342094  44.3469280  -4.6817401
  21.5552094  47.0309280   1.1052599  21.6142094  47.9829280   1.1822599
  21.5852094  46.8639280   0.1632599   8.8972094  42.9949280  -2.0237401
   8.4552094  42.5489280  -2.7467401   8.2682094  43.6529280  -1.7277401
  10.9732094  41.5749280 -13.8447401  11.9272094  41.6519280 -13.8117401
  10.6902094  42.3199280 -14.3747401  26.7412094  38.4949280  -2.1487401
  27.0392094  38.7849280  -3.0107401  25.8672094  38.8729280  -2.0567401
  23.4242094  41.0289280 -12.3497401  23.6852094  40.1529280 -12.6327401
  24.2442094  41.4559280 -12.1037401  25.0422094  42.0849280 -10.5627401
  25.2092094  43.0149280 -10.4067401  24.8822094  41.7199280  -9.6927401
  28.8862094  38.4479280   0.0202599  29.4982094  38.2339280  -0.6847401
  28.1432094  38.8569280  -0.4237401  28.3012094  40.5469280 -14.6467401
  28.2982094  41.0959280 -13.8617401  28.7482094  41.0759280 -15.3077401
  32.4162094  41.6829280  -6.9757401  32.0432094  41.0759280  -7.6147401
  33.2722094  41.9149280  -7.3357401  32.7032094  40.5769280 -17.1117401
  31.8842094  41.0699280 -17.1567401  32.4662094  39.7549280 -16.6827401
  18.9822094  42.6169280  -3.9197401  18.2452094  42.8229280  -3.3437401
  19.6842094  43.1979280  -3.6277401  23.2342094  42.9999280  -3.6147401
  23.2682094  42.9459280  -2.6597401  22.6402094  43.7299280  -3.7917401
  34.5442094  39.6159280 -13.1187401  34.8182094  40.0989280 -13.8987401
  35.2012094  38.9269280 -13.0197401   7.3162094  38.7149280 -13.2417401
   7.3212094  38.6429280 -14.1967401   7.8612094  37.9869280 -12.9437401
  24.9902094  39.9339280 -17.3707401  25.0052094  39.7439280 -16.4327401
  25.1832094  39.0939280 -17.7887401  15.0332094  43.0899280   9.4452599
  15.4082094  43.1749280  10.3212599  14.5502094  42.2639280   9.4692599
  28.2792094  41.2829280   8.3322599  28.8162094  40.7019280   8.8712599
  28.8932094  41.9389280   8.0012599  36.9262094  39.6859280   3.3412599
  37.1592094  39.0339280   2.6802599  35.9842094  39.5709280   3.4702599
  33.8152094  43.6049280  10.7702599  32.9912094  43.2079280  10.4882599
  33.8102094  44.4749280  10.3712599  33.3042094  39.1129280   7.1532599
  33.0742094  38.5239280   6.4352599  34.0972094  38.7329280   7.5312599
  10.9832094  41.0759280 -17.8497401  10.3462094  41.5339280 -18.3987401
  10.4562094  40.4899280 -17.3077401  27.9252094  42.3379280   0.8612599
  28.0502094  42.3879280  -0.0857401  28.7962094  42.4889280   1.2272599
  24.0232094  39.6459280   7.7042599  24.6632094  39.0309280   8.0642599
  24.3102094  40.5029280   8.0192599  31.1452094  40.1029280   3.9762599
  30.2712094  40.3819280   4.2512599  31.1882094  39.1769280   4.2152599
  36.5452094  44.9019280   2.3562599  36.1562094  44.6069280   1.5332599
  36.2132094  44.2889280   3.0122599  29.5032094  39.0389280 -19.3657401
  30.0362094  38.7619280 -18.6207401  30.1392094  39.2529280 -20.0487401
   9.2512094  40.8779280   0.2542599   9.2232094  41.5369280  -0.4397401
   8.5792094  40.2419280   0.0092599   8.0562094  44.6529280 -18.4807401
   8.3852094  45.1069280 -19.2567401   8.8002094  44.6339280 -17.8797401
  28.4752094  43.6989280  40.5452599  27.7282094  43.3899280  41.0582599
  28.1072094  44.3619280  39.9612599  28.3122094  39.5849280  32.3492599
  28.1522094  38.7359280  31.9372599  28.8222094  40.0739280  31.7032599
  13.0662094  45.4049280  19.3152599  12.6012094  44.6079280  19.0622599
  13.0902094  45.9319280  18.5162599  16.2512094  47.1179280  28.4402599
  15.6452094  46.6849280  29.0422599  16.5812094  46.4119280  27.8842599
   9.7202094  45.5989280  39.4612599  10.4612094  46.0109280  39.9072599
  10.0502094  45.3959280  38.5862599  35.2242094  43.9989280  16.1632599
  34.2842094  44.1189280  16.0272599  35.4032094  43.1149280  15.8442599
  25.6192094  43.2929280  35.6602599  25.3022094  42.9499280  36.4952599
  25.5592094  42.5519280  35.0572599   8.7762094  46.3039280  15.7522599
   9.1002094  45.5159280  15.3172599   9.5622094  46.7299280  16.0952599
  11.5652094  40.1309280  27.2522599  10.6342094  40.2679280  27.0782599
  11.9552094  40.0069280  26.3872599  18.2062094  40.6169280  28.7602599
  17.9442094  41.5379280  28.7532599  18.8792094  40.5639280  29.4382599
  15.5412094  44.8199280  14.1162599  16.2052094  45.3419280  13.6662599
  15.1752094  45.4129280  14.7732599  16.2732094  41.2429280  22.9152599
  16.4532094  41.6989280  22.0932599  16.9602094  41.5419280  23.5122599
  14.3952094  46.6389280  40.4662599  14.5472094  47.1779280  41.2422599
  15.2522094  46.5769280  40.0452599  11.8742094  42.0469280  22.9612599
  11.0212094  42.3859280  22.6872599  12.4182094  42.8269280  23.0682599
  22.7582094  42.9379280  33.8222599  23.3102094  43.5789280  33.3742599
  22.4542094  42.3549280  33.1272599  19.1292094  43.3669280  29.0452599
  19.9982094  43.7529280  28.9382599  18.9532094  43.4279280  29.9842599
  16.5782094  44.4339280  24.1742599  15.6552094  44.2569280  24.3552599
  16.7322094  44.0459280  23.3132599  19.9142094  43.1779280  23.6492599
  20.7432094  42.7119280  23.5372599  19.5572094  42.8369280  24.4702599
  18.4652094  47.0879280  19.9642599  18.5282094  46.3789280  20.6052599
  17.8602094  47.7149280  20.3582599  13.1942094  39.3159280  15.0772599
  14.0432094  38.9069280  14.9082599  13.3482094  40.2509280  14.9452599
  19.3782094  41.4629280  17.2632599  19.7702094  41.9429280  17.9932599
  20.0132094  40.7759280  17.0582599  10.9802094  44.3649280  29.1602599
  11.7232094  43.8299280  28.8822599  10.2292094  43.9899280  28.6992599
  14.4522094  43.9229280  21.3842599  13.8372094  44.5009280  20.9322599
  14.8282094  43.3819280  20.6902599  11.6772094  42.7509280  19.2252599
  11.0062094  42.1129280  19.4652599  11.9392094  42.5029280  18.3392599
  19.8032094  41.1779280  13.2602599  19.4352094  41.5479280  12.4582599
  20.4622094  41.8149280  13.5382599  22.8262094  45.0479280  19.6012599
  22.8072094  45.0479280  20.5582599  23.7282094  45.2819280  19.3802599
   8.7632094  40.2729280  22.9932599   8.8572094  39.8339280  22.1482599
   8.9682094  41.1899280  22.8122599  17.3302094  46.9799280  13.5602599
  17.9872094  47.0409280  12.8672599  17.7812094  47.2889280  14.3462599
  17.1602094  40.0569280  19.7802599  18.0732094  40.2199280  19.5432599
  17.2032094  39.6909280  20.6632599  11.6572094  45.4269280  31.7092599
  11.5632094  45.1529280  30.7962599  11.6472094  46.3829280  31.6752599
  24.5212094  39.7509280  27.9862599  24.3332094  40.6009280  28.3842599
  23.7792094  39.1999280  28.2342599  15.6892094  42.5739280  19.2262599
  16.0502094  42.8899280  18.3982599  16.1682094  41.7639280  19.4032599
  11.3592094  46.4759280  17.1722599  10.7872094  46.7669280  17.8822599
  11.5102094  47.2619280  16.6472599  16.9592094  41.3199280  16.2552599
  17.8082094  41.1709280  16.6732599  16.9872094  40.7909280  15.4582599
  20.1792094  44.5149280  31.5192599  20.4542094  45.4289280  31.4482599
  20.6422094  44.1849280  32.2892599  22.1942094  45.5529280  38.6622599
  22.4192094  45.4779280  39.5892599  21.3372094  45.1329280  38.5882599
  36.2582094  40.8039280  24.1942599  36.3772094  41.1589280  25.0752599
  37.1472094  40.6629280  23.8692599   9.6572094  40.7049280  20.1002599
   9.1082094  41.4429280  19.8332599   9.0692094  39.9499280  20.0812599
  15.2072094  39.4869280  24.6772599  15.3742094  40.2399280  24.1102599
  15.7722094  39.6299280  25.4382599  26.1782094  46.7829280  16.5832599
  27.0962094  46.8139280  16.8542599  26.0322094  45.8709280  16.3342599
  20.6312094  38.9999280  15.7392599  21.4482094  38.9789280  16.2362599
  20.9052094  38.9459280  14.8232599  21.9192094  43.4659280  17.3502599
  22.4752094  42.6899280  17.2812599  22.4552094  44.1049280  17.8202599
  11.6192094  38.4059280  19.7662599  12.1412094  38.7649280  20.4832599
  10.8952094  39.0239280  19.6632599  35.9892094  45.1879280  25.7312599
  35.7822094  44.7759280  24.8932599  35.1652094  45.5869280  26.0122599
   9.3812094  40.8689280  25.6342599   9.1732094  40.4509280  24.7982599
   9.9462094  41.6059280  25.3992599  27.5412094  39.6279280  25.0082599
  28.4322094  39.5009280  24.6822599  27.5152094  40.5449280  25.2832599
  13.1482094  39.7319280  21.4532599  13.8962094  40.3269280  21.4972599
  12.3892094  40.2859280  21.6372599  25.1512094  43.2139280  10.9482599
  24.2392094  43.4819280  11.0642599  25.3852094  42.7949280  11.7772599
  13.5692094  42.3139280  16.8922599  14.0112094  42.5969280  17.6922599
  13.9642094  42.8439280  16.1992599  17.7202094  43.2729280  21.6992599
  17.6342094  43.9439280  21.0212599  18.5672094  43.4509280  22.1072599
  25.0442094  44.2329280  16.9342599  25.9612094  44.0479280  16.7322599
  24.5552094  43.8429280  16.2102599  32.0082094  45.8659280  19.2242599
  32.1182094  45.1669280  18.5792599  32.6862094  46.5039280  19.0042599
  23.5942094  42.0649280  29.6622599  24.2972094  42.7149280  29.6592599
  23.3842094  41.9429280  30.5882599  18.8322094  46.5629280  34.2212599
  19.1072094  45.9299280  34.8852599  19.1182094  47.4089280  34.5652599
  20.6752094  46.7959280  28.3962599  19.7592094  46.9089280  28.6522599
  20.9052094  47.6159280  27.9592599  12.5632094  44.2869280  15.1542599
  13.1252094  45.0289280  14.9312599  12.3142094  44.4399280  16.0662599
  24.2462094  42.7269280  14.3082599  24.5102094  41.8639280  14.6272599
  23.5202094  42.5489280  13.7092599  16.4872094  43.1849280  27.2932599
  15.6652094  43.2019280  26.8032599  16.2182094  43.1459280  28.2112599
  36.0182094  45.7079280  12.9022599  36.0572094  45.4139280  13.8122599
  36.7272094  45.2329280  12.4672599  20.0192094  44.5319280  36.4702599
  19.4092094  45.2359280  36.6882599  19.4772094  43.8679280  36.0442599
  25.0242094  44.2369280  28.9662599  25.9272094  44.0559280  28.7032599
  24.9732094  45.1919280  29.0092599  12.8512094  46.6109280  28.8662599
  13.4502094  46.3149280  29.5522599  12.3762094  45.8219280  28.6062599
  13.0982094  44.6999280  33.7902599  13.0512094  43.7439280  33.7752599
  12.4452094  44.9829280  33.1512599  19.2672094  40.7239280  36.2692599
  19.0822094  40.7779280  37.2062599  18.8622094  41.5079280  35.8982599
  27.3032094  42.2729280  25.6412599  27.7952094  42.9369280  25.1582599
  26.4512094  42.2419280  25.2062599  12.8832094  44.9969280  38.5792599
  13.4602094  45.2199280  37.8492599  13.4172094  45.1429280  39.3602599
  17.3072094  40.1989280  14.0262599  16.7572094  40.2699280  13.2452599
  18.1612094  40.5299280  13.7482599  14.3422094  45.5759280  36.1552599
  13.8612094  45.4619280  35.3362599  14.4612094  46.5219280  36.2342599
  31.9552094  44.5059280  27.7602599  31.0162094  44.4659280  27.5782599
  32.3692094  44.1769280  26.9622599  18.6102094  39.8499280  32.9782599
  18.9852094  39.7309280  33.8512599  19.3602094  40.0559280  32.4202599
  11.5612094  40.4709280  33.2062599  12.2322094  41.0229280  33.6092599
  10.9412094  41.0899280  32.8222599   8.9622094  39.0619280  39.5502599
   9.7622094  39.5079280  39.8282599   8.2952094  39.7489280  39.5422599
  17.9992094  42.9459280  35.3202599  17.1002094  43.0089280  35.6432599
  17.9092094  42.8999280  34.3682599  14.5982094  46.6829280  33.1532599
  14.1912094  45.8249280  33.2712599  14.0852094  47.0989280  32.4602599
  13.1462094  40.9219280  40.2662599  12.5902094  40.8499280  41.0412599
  12.6622094  40.4639280  39.5792599  36.1212094  38.3409280  37.9822599
  36.4912094  39.0849280  38.4572599  36.6462094  38.2799280  37.1842599
  26.0142094  41.9669280  32.9642599  26.0462094  41.0529280  33.2482599
  26.5242094  41.9839280  32.1542599  21.8452094  40.0799280  34.9422599
  22.4862094  39.9869280  35.6472599  21.0782094  40.4659280  35.3652599
  14.3982094  46.4419280  16.0002599  13.8292094  47.1939280  16.1652599
  15.1562094  46.5849280  16.5662599  37.3032094  46.6009280  22.0362599
  37.3802094  45.6869280  21.7612599  36.4812094  46.8999280  21.6482599
  14.0962094  43.0059280  26.0852599  13.6142094  43.5579280  25.4702599
  13.4692094  42.8209280  26.7842599  22.4382094  46.7149280  35.9472599
  21.7242094  46.0819280  36.0182599  22.9092094  46.6399280  36.7772599
  22.6302094  38.5969280  23.8432599  23.2952094  37.9469280  24.0722599
  22.7752094  39.3159280  24.4572599  12.3022094  42.4419280  37.4872599
  11.3742094  42.5769280  37.2962599  12.5362094  43.1659280  38.0672599
  28.7292094  40.7149280  34.9202599  28.3822094  40.5519280  34.0432599
  28.6302094  39.8799280  35.3772599  10.7442094  45.6269280  36.6582599
  11.5442094  45.1079280  36.7422599  10.5982094  45.6909280  35.7142599
  35.6202094  39.7529280  28.3862599  35.5632094  38.8289280  28.6302599
  35.5662094  40.2239280  29.2182599  23.0212094  41.7469280  12.1072599
  23.5802094  40.9709280  12.0692599  22.6762094  41.8379280  11.2192599
   8.0622094  41.8539280  34.5742599   7.7432094  40.9769280  34.3632599
   8.8252094  41.9749280  34.0082599  17.7062094  45.6139280  26.5412599
  17.7312094  44.7599280  26.9732599  17.3282094  45.4359280  25.6802599
  22.7452094  42.6249280  36.7292599  22.0502094  43.2829280  36.7402599
  22.9782094  42.5369280  35.8052599  16.5652094  46.5199280  38.8712599
  15.9892094  46.6129280  38.1122599  17.3742094  46.9619280  38.6142599
  15.1342094  45.5329280  30.3502599  15.1112094  44.5769280  30.3232599
  15.9742094  45.7419280  30.7602599   8.3092094  44.4899280  20.2552599
   7.8362094  44.7569280  19.4672599   9.1082094  45.0169280  20.2462599
   9.3552094  43.1129280  22.7042599   8.8792094  43.4539280  21.9472599
   9.0312094  43.6269280  23.4432599  21.0472094  45.1749280  13.0842599
  20.2552094  45.6379280  12.8082599  20.7382094  44.5299280  13.7202599
  20.2782094  43.5619280  15.2782599  20.8702094  43.5529280  16.0302599
  19.5852094  42.9439280  15.5112599  16.3542094  43.8739280  16.3622599
  16.0382094  44.1069280  15.4892599  16.6062094  42.9539280  16.2892599
  20.0432094  40.4879280  20.2222599  20.8212094  39.9919280  20.4782599
  19.8262094  41.0099280  20.9942599  27.2732094  41.4679280  12.0322599
  27.6202094  40.7839280  11.4592599  26.4122094  41.1439280  12.2972599
  35.3642094  40.8579280  30.7652599  34.5622094  40.6449280  31.2432599
  35.6162094  41.7219280  31.0902599   8.1792094  38.4309280  36.3512599
   8.9642094  38.5019280  35.8082599   8.4292094  38.8249280  37.1872599
  17.6202094  39.8799280  26.3362599  17.7862094  39.9079280  27.2792599
  17.8952094  40.7399280  26.0192599  33.5252094  46.9569280  25.3212599
  33.1192094  47.8239280  25.3412599  32.7872094  46.3469280  25.3142599
  20.8312094  38.8789280  12.4612599  20.0502094  38.6559280  11.9552599
  20.8362094  39.8359280  12.4872599  10.3612094  39.0189280  15.1882599
  11.3162094  39.0859280  15.1822599  10.0652094  39.8439280  15.5722599
  20.1382094  39.7409280  23.1492599  20.7612094  39.0409280  23.3462599
  19.2942094  39.3999280  23.4442599  14.3872094  40.6209280  30.4112599
  14.9392094  39.8549280  30.2542599  13.6362094  40.2799280  30.8982599
  34.5402094  38.7459280  23.4472599  34.6972094  38.1089280  24.1442599
  35.1242094  39.4759280  23.6532599  15.5452094  42.6139280  12.4742599
  15.6362094  43.2569280  13.1772599  14.7242094  42.1599280  12.6682599
  10.6282094  44.6169280  12.5192599  11.1902094  45.2839280  12.1242599
  11.1632094  44.2349280  13.2152599   7.3242094  41.9949280  16.4512599
   7.1792094  41.0809280  16.2092599   7.2602094  42.0029280  17.4062599
  27.0912094  38.7269280  36.9292599  26.4942094  38.4889280  37.6382599
  27.4832094  39.5529280  37.2122599  15.8832094  43.3719280  36.8332599
  15.7532094  43.2709280  37.7762599  15.1542094  43.9229280  36.5472599
  12.2422094  39.4359280  38.2312599  12.4242094  40.2449280  37.7542599
  12.1112094  38.7789280  37.5472599  15.6472094  40.9899280  35.5432599
  15.2792094  40.2479280  36.0222599  15.6562094  41.7049280  36.1792599
  33.9582094  42.1009280  33.3412599  33.9602094  41.2729280  33.8212599
  34.5422094  42.6699280  33.8412599  17.1062094  41.9899280  32.4382599
  16.3022094  41.8969280  32.9492599  17.6962094  41.3259280  32.7942599
  18.0322094  40.6269280  38.7432599  17.1522094  40.4279280  38.4232599
  17.9082094  40.8459280  39.6662599  23.0662094  40.5399280  32.3132599
  22.7022094  40.3919280  33.1862599  23.9702094  40.2319280  32.3752599
  21.7222094  41.7929280  39.3512599  21.3592094  40.9239280  39.1752599
  22.2412094  41.9969280  38.5732599  20.2522094  39.9899280  30.6142599
  21.1522094  40.0399280  30.9372599  20.1272094  39.0669280  30.3942599
  15.4402094  39.7029280  38.7572599  14.7832094  39.8439280  39.4392599
  15.3762094  38.7689280  38.5532599  25.6742094  46.4639280  12.2212599
  26.3872094  46.8179280  12.7522599  25.2382094  47.2359280  11.8592599
  32.2812094  41.4489280  36.0182599  31.9472094  41.1299280  35.1802599
  32.8242094  40.7329280  36.3482599  16.2732094  39.6119280  11.7892599
  15.5892094  38.9419280  11.7652599  15.8602094  40.3899280  11.4162599
  12.6892094  38.6119280  31.5112599  12.3392094  39.2389280  32.1442599
  12.5512094  37.7569280  31.9202599  21.8582094  46.2319280  15.9692599
  22.5502094  46.1109280  15.3192599  21.5872094  45.3429280  16.1982599
  19.4302094  44.7819280  18.4912599  20.2512094  44.3549280  18.2482599
  18.7642094  44.3379280  17.9662599  17.9612094  44.6469280  40.5802599
  18.3082094  45.3249280  41.1592599  17.3412094  45.1079280  40.0142599
  26.5642094  45.9819280  23.4062599  26.7512094  46.4149280  22.5732599
  26.1672094  46.6639280  23.9482599  34.6662094  42.4299280  21.2672599
  34.5242094  42.7299280  20.3702599  34.9012094  41.5059280  21.1782599
  31.0292094  46.3469280  21.7472599  30.4522094  46.9209280  21.2442599
  31.6902094  46.0599280  21.1172599  31.3272094  39.7859280  21.5562599
  30.4112094  39.9049280  21.8062599  31.2972094  39.1779280  20.8182599
   7.2482094  45.1639280  28.1972599   7.9662094  45.7679280  28.3862599
   6.9052094  45.4569280  27.3532599  25.8102094  43.3259280  23.1222599
  26.3802094  42.9189280  22.4692599  26.1842094  44.1969280  23.2582599
  34.9482094  41.2209280  14.5632599  35.4032094  40.4539280  14.2152599
  34.2282094  41.3709280  13.9512599  23.0572094  45.4529280  11.2742599
  22.3902094  45.2879280  11.9412599  23.6442094  46.0929280  11.6752599
  33.1272094  43.8719280  25.3822599  33.3462094  44.2749280  24.5422599
  32.9502094  42.9559280  25.1702599  32.6382094  45.4059280  16.1132599
  32.0732094  44.6429280  15.9922599  32.9512094  45.6149280  15.2322599
  23.8952094  45.4419280  14.5002599  24.3842094  45.9509280  13.8532599
  23.9722094  44.5359280  14.2002599  12.8032094  42.3519280  28.5762599
  13.3172094  41.8509280  29.2082599  12.2972094  41.6919280  28.1012599
  32.4842094  44.0529280  30.3532599  33.3592094  43.7179280  30.1572599
  32.1092094  44.2599280  29.4972599  17.6952094  45.5709280  31.5282599
  18.5352094  45.2289280  31.2202599  17.8162094  45.6909280  32.4702599
  36.7202094  39.1359280  13.9902599  37.3832094  39.1989280  13.3032599
  36.3302094  38.2699280  13.8682599   7.7462094  41.8729280  12.7202599
   8.0912094  42.3779280  11.9842599   6.8072094  41.8059280  12.5462599
  25.2042094  45.4429280  37.8332599  24.5132094  44.9969280  38.3222599
  25.2872094  44.9409280  37.0222599  33.9302094  42.0499280  28.4762599
  33.6532094  42.5189280  27.6892599  33.2342094  41.4129280  28.6342599
  27.0832094  46.2189280  39.8482599  26.6432094  45.9539280  39.0402599
  26.4612094  46.0049280  40.5422599  28.4542094  39.1919280  19.1972599
  28.5872094  39.5359280  20.0802599  27.7792094  38.5209280  19.3012599
  31.3712094  42.8659280  39.8892599  31.1072094  43.4579280  39.1852599
  30.6222094  42.8539280  40.4862599  34.2082094  39.0509280  33.9702599
  33.2992094  38.8089280  33.7912599  34.6462094  38.2199280  34.1542599
  30.5502094  43.4809280  22.4292599  30.9522094  44.3169280  22.1912599
  31.2912094  42.9009280  22.6072599  32.1632094  39.4649280  30.7272599
  31.8602094  39.8329280  29.8972599  31.6632094  39.9339280  31.3952599
  33.5092094  45.9289280  34.5562599  33.4892094  45.1889280  35.1622599
  34.2922094  46.4209280  34.8042599   7.2182094  44.7709280  17.9032599
   6.6402094  44.3299280  17.2792599   7.8962094  45.1729280  17.3592599
  12.5982094  40.0749280  24.7152599  13.5402094  39.9819280  24.5682599
  12.3072094  40.6809280  24.0342599  19.2282094  42.2249280  10.9232599
  18.6362094  42.9479280  10.7162599  19.9032094  42.2659280  10.2452599
  31.6472094  40.5229280  28.1802599  31.8852094  40.6199280  27.2582599
  31.1072094  39.7329280  28.2072599  15.7372094  42.8349280  30.0422599
  16.3442094  42.5319280  30.7182599  15.0022094  42.2229280  30.0892599
  34.8612094  45.6659280  39.1072599  35.3802094  46.4399280  38.8872599
  34.7012094  45.2359280  38.2672599  28.4212094  40.1659280  21.6642599
  28.2442094  40.1839280  22.6042599  28.2852094  41.0689280  21.3772599
  29.3042094  44.6599280  27.0752599  28.7632094  45.2539280  27.5952599
  28.8682094  44.6199280  26.2242599  35.1822094  39.9799280  19.9102599
  34.8562094  39.2099280  20.3752599  34.7732094  39.9299280  19.0462599
   9.8832094  42.5259280  32.4852599   9.4932094  42.0229280  31.7702599
  10.1872094  43.3339280  32.0702599  19.3272094  45.8919280  22.8362599
  20.2672094  45.8669280  22.6572599  19.1542094  45.0859280  23.3222599
   9.1542094  46.6879280  29.0412599  10.0052094  47.0919280  29.2092599
   8.5962094  46.9979280  29.7542599  34.6912094  44.3939280  23.2902599
  34.8222094  43.5689280  22.8222599  34.6202094  45.0529280  22.5992599
  13.2532094  41.9409280  13.9492599  12.9002094  42.8049280  14.1632599
  12.5632094  41.5219280  13.4342599  27.3502094  41.6849280  17.7882599
  27.9762094  41.1189280  18.2412599  26.6162094  41.7659280  18.3962599
  29.3522094  46.2039280  19.2492599  30.2662094  45.9199280  19.2172599
  29.3152094  46.9599280  18.6632599  34.2982094  46.3589280  21.3732599
  33.8572094  47.0959280  21.7962599  34.4732094  46.6639280  20.4822599
  31.6182094  46.6689280  10.7802599  32.1872094  47.2689280  10.2982599
  32.1372094  46.4049280  11.5402599  27.6332094  44.1609280  16.5652599
  27.8772094  43.3749280  17.0532599  28.4682094  44.5359280  16.2822599
  22.2582094  41.5459280  22.5872599  23.1182094  41.1379280  22.4842599
  21.7642094  40.9319280  23.1312599   8.4422094  45.2469280  24.7772599
   7.5542094  45.1739280  25.1242599   8.7352094  46.1169280  25.0472599
  31.9752094  40.5509280  16.5132599  31.3712094  39.8079280  16.5262599
  32.8452094  40.1519280  16.5182599  31.6922094  42.2219280  18.9512599
  31.8532094  41.5619280  18.2772599  32.5562094  42.3989280  19.3252599
  28.6082094  44.3949280  24.3402599  27.9322094  44.8899280  23.8772599
  29.2262094  44.1359280  23.6562599  34.4252094  43.4059280  18.6752599
  34.5782094  44.3269280  18.8882599  34.7482094  43.3109280  17.7792599
  30.4462094  38.9049280  24.8392599  30.8912094  38.1979280  24.3722599
  31.1362094  39.5409280  25.0262599  23.4492094  44.0989280  22.4192599
  24.3432094  43.7889280  22.5592599  22.9142094  43.3059280  22.4402599
  32.4482094  40.9579280  25.7642599  33.3472094  40.6339280  25.8282599
  32.3002094  41.0709280  24.8252599  30.2082094  46.8699280  14.1192599
  30.4022094  47.8059280  14.0642599  30.6252094  46.5859280  14.9332599
  25.5842094  40.2029280  15.1212599  25.3592094  39.4679280  15.6912599
  26.5402094  40.2429280  15.1482599  27.0972094  46.8029280  20.6802599
  27.0972094  47.6869280  20.3132599  27.8012094  46.3509280  20.2172599
  25.7322094  44.6709280  19.5602599  25.8742094  44.7409280  18.6162599
  26.0462094  45.5029280  19.9132599  24.7702094  40.5529280  22.3132599
  24.7232094  40.3609280  23.2502599  24.6292094  39.7079280  21.8882599
  30.2752094  44.4809280  12.9002599  30.3052094  45.3989280  13.1692599
  29.7642094  44.4839280  12.0912599  30.2802094  43.0169280  37.2312599
  30.9802094  42.5889280  36.7392599  29.6432094  43.2769280  36.5662599
  37.1872094  41.7479280  19.3492599  36.4752094  41.1229280  19.4862599
  36.8112094  42.5959280  19.5832599  15.1102094  39.3649280  17.6752599
  15.5732094  39.8399280  18.3652599  14.7992094  40.0479280  17.0812599
  33.2502094  44.6379280  13.4872599  33.9632094  44.9119280  12.9102599
  32.6632094  44.1369280  12.9212599  35.5532094  43.9029280  29.9152599
  35.9912094  44.4289280  29.2462599  35.2472094  43.1259280  29.4472599
  20.8932094  39.2439280  39.4082599  19.9962094  39.1109280  39.7132599
  21.4322094  39.1279280  40.1912599  28.1292094  42.8199280  28.3692599
  27.7692094  42.3419280  27.6222599  28.7112094  43.4719280  27.9782599
  31.3002094  40.1709280  38.7292599  31.9682094  39.8659280  38.1152599
  31.5932094  41.0449280  38.9872599   7.8702094  42.9169280  37.1942599
   8.0092094  42.7709280  36.2592599   8.0642094  43.8449280  37.3242599
  28.3812094  43.4359280  35.0222599  27.5372094  43.6999280  35.3872599
  28.4432094  42.4999280  35.2122599  33.7312094  44.0149280  36.5532599
  33.0082094  43.4019280  36.4202599  34.5102094  43.5299280  36.2802599
   9.8362094  45.5079280  33.9442599  10.1032094  46.3199280  33.5122599
   9.2912094  45.0599280  33.2962599  34.1962094  46.1899280  31.5242599
  34.3512094  46.0029280  32.4502599  33.3622094  45.7609280  31.3302599
  29.3742094  45.7849280  33.8482599  29.8202094  45.6659280  33.0102599
  29.1722094  44.8959280  34.1412599   8.9012094  43.1839280  14.8412599
   8.5802094  42.7669280  14.0412599   8.2732094  42.9249280  15.5152599
  35.0762094  41.3749280  11.4032599  34.3262094  40.8019280  11.5642599
  34.7582094  42.2519280  11.6142599  24.7762094  44.3809280  32.4792599
  25.1142094  43.4869280  32.5292599  25.4272094  44.8559280  31.9622599
  25.8202094  42.2289280  38.3132599  26.6332094  41.7309280  38.2282599
  25.7732094  42.4559280  39.2422599  27.2552094  45.0379280  31.2912599
  27.5982094  44.1759280  31.0562599  28.0342094  45.5729280  31.4432599
  36.6012094  41.6019280  26.6862599  36.4242094  40.8209280  27.2112599
  36.0942094  42.2949280  27.1102599  25.0672094  46.0609280  34.7362599
  24.9452094  45.1119280  34.7062599  24.2032094  46.4069280  34.9622599
  37.0372094  41.0299280  39.3222599  36.4992094  41.3599280  40.0412599
  36.9072094  41.6619280  38.6152599  31.1882094  43.1429280  15.6852599
  31.0722094  42.9589280  14.7532599  31.4352094  42.3009280  16.0672599
  35.8852094  43.4169280  34.5872599  36.4162094  44.1009280  34.9962599
  36.4582094  42.6509280  34.5622599   9.7042094  42.2269280  39.6082599
   9.5272094  43.1659280  39.6512599   9.1922094  41.9189280  38.8602599
  30.2842094  45.5299280  31.3462599  30.7592094  46.2259280  30.8922599
  30.7702094  44.7319280  31.1362599   7.3082094  45.6099280  35.6502599
   8.1882094  45.7439280  35.2962599   6.8652094  46.4479280  35.5152599
  28.4702094  42.6489280  20.8512599  29.3582094  42.8669280  21.1342599
  28.1442094  43.4529280  20.4452599  13.2392094  44.4749280  23.6042599
  13.9492094  44.3619280  22.9722599  13.1672094  45.4219280  23.7182599
  31.3012094  42.1519280  31.7372599  31.7752094  42.9119280  31.3982599
  31.7292094  41.9549280  32.5702599  20.9292094  44.8889280  26.2532599
  21.4322094  45.2839280  25.5412599  20.6152094  45.6339280  26.7662599
  24.4032094  40.6779280  24.8772599  24.6442094  40.1199280  25.6172599
  24.1832094  41.5209280  25.2742599  13.3632094  42.0819280  34.4752599
  14.2192094  41.8699280  34.8482599  12.8142094  42.2809280  35.2332599
  34.6612094  46.7319280  17.9912599  34.2662094  47.4919280  17.5632599
  34.6402094  46.0449280  17.3252599  11.8262094  46.6419280  10.9752599
  11.7372094  47.5779280  11.1542599  12.7672094  46.4759280  11.0302599
  10.7662094  43.7299280  25.3372599  11.4742094  44.1829280  24.8782599
  10.0342094  44.3469280  25.3182599  21.5552094  47.0309280  31.1052599
  21.6142094  47.9829280  31.1822599  21.5852094  46.8639280  30.1632599
   8.8972094  42.9949280  27.9762599   8.4552094  42.5489280  27.2532599
   8.2682094  43.6529280  28.2722599  10.9732094  41.5749280  16.1552599
  11.9272094  41.6519280  16.1882599  10.6902094  42.3199280  15.6252599
  26.7412094  38.4949280  27.8512599  27.0392094  38.7849280  26.9892599
  25.8672094  38.8729280  27.9432599  23.4242094  41.0289280  17.6502599
  23.6852094  40.1529280  17.3672599  24.2442094  41.4559280  17.8962599
  25.0422094  42.0849280  19.4372599  25.2092094  43.0149280  19.5932599
  24.8822094  41.7199280  20.3072599  28.8862094  38.4479280  30.0202599
  29.4982094  38.2339280  29.3152599  28.1432094  38.8569280  29.5762599
  28.3012094  40.5469280  15.3532599  28.2982094  41.0959280  16.1382599
  28.7482094  41.0759280  14.6922599  32.4162094  41.6829280  23.0242599
  32.0432094  41.0759280  22.3852599  33.2722094  41.9149280  22.6642599
  32.7032094  40.5769280  12.8882599  31.8842094  41.0699280  12.8432599
  32.4662094  39.7549280  13.3172599  18.9822094  42.6169280  26.0802599
  18.2452094  42.8229280  26.6562599  19.6842094  43.1979280  26.3722599
  23.2342094  42.9999280  26.3852599  23.2682094  42.9459280  27.3402599
  22.6402094  43.7299280  26.2082599  34.5442094  39.6159280  16.8812599
  34.8182094  40.0989280  16.1012599  35.2012094  38.9269280  16.9802599
   7.3162094  38.7149280  16.7582599   7.3212094  38.6429280  15.8032599
   7.8612094  37.9869280  17.0562599  24.9902094  39.9339280  12.6292599
  25.0052094  39.7439280  13.5672599  25.1832094  39.0939280  12.2112599
  15.0332094  43.0899280  39.4452599  15.4082094  43.1749280  40.3212599
  14.5502094  42.2639280  39.4692599  28.2792094  41.2829280  38.3322599
  28.8162094  40.7019280  38.8712599  28.8932094  41.9389280  38.0012599
  36.9262094  39.6859280  33.3412599  37.1592094  39.0339280  32.6802599
  35.9842094  39.5709280  33.4702599  33.8152094  43.6049280  40.7702599
  32.9912094  43.2079280  40.4882599  33.8102094  44.4749280  40.3712599
  33.3042094  39.1129280  37.1532599  33.0742094  38.5239280  36.4352599
  34.0972094  38.7329280  37.5312599  10.9832094  41.0759280  12.1502599
  10.3462094  41.5339280  11.6012599  10.4562094  40.4899280  12.6922599
  27.9252094  42.3379280  30.8612599  28.0502094  42.3879280  29.9142599
  28.7962094  42.4889280  31.2272599  24.0232094  39.6459280  37.7042599
  24.6632094  39.0309280  38.0642599  24.3102094  40.5029280  38.0192599
  31.1452094  40.1029280  33.9762599  30.2712094  40.3819280  34.2512599
  31.1882094  39.1769280  34.2152599  36.5452094  44.9019280  32.3562599
  36.1562094  44.6069280  31.5332599  36.2132094  44.2889280  33.0122599
  29.5032094  39.0389280  10.6342599  30.0362094  38.7619280  11.3792599
  30.1392094  39.2529280   9.9512599   9.2512094  40.8779280  30.2542599
   9.2232094  41.5369280  29.5602599   8.5792094  40.2419280  30.0092599
   8.0562094  44.6529280  11.5192599   8.3852094  45.1069280  10.7432599
   8.8002094  44.6339280  12.1202599  13.0662094  45.4049280  49.3152599
  12.6012094  44.6079280  49.0622599  13.0902094  45.9319280  48.5162599
  35.2242094  43.9989280  46.1632599  34.2842094  44.1189280  46.0272599
  35.4032094  43.1149280  45.8442599   8.7762094  46.3039280  45.7522599
   9.1002094  45.5159280  45.3172599   9.5622094  46.7299280  46.0952599
  15.5412094  44.8199280  44.1162599  16.2052094  45.3419280  43.6662599
  15.1752094  45.4129280  44.7732599  29.6422094  42.0409280  43.2782599
  28.8692094  42.0109280  42.7142599  29.9852094  42.9279280  43.1672599
  13.1942094  39.3159280  45.0772599  14.0432094  38.9069280  44.9082599
  13.3482094  40.2509280  44.9452599  19.3782094  41.4629280  47.2632599
  19.7702094  41.9429280  47.9932599  20.0132094  40.7759280  47.0582599
  11.6772094  42.7509280  49.2252599  11.0062094  42.1129280  49.4652599
  11.9392094  42.5029280  48.3392599  19.8032094  41.1779280  43.2602599
  19.4352094  41.5479280  42.4582599  20.4622094  41.8149280  43.5382599
  17.3302094  46.9799280  43.5602599  17.9872094  47.0409280  42.8672599
  17.7812094  47.2889280  44.3462599  15.6892094  42.5739280  49.2262599
  16.0502094  42.8899280  48.3982599  16.1682094  41.7639280  49.4032599
  11.3592094  46.4759280  47.1722599  10.7872094  46.7669280  47.8822599
  11.5102094  47.2619280  46.6472599  16.9592094  41.3199280  46.2552599
  17.8082094  41.1709280  46.6732599  16.9872094  40.7909280  45.4582599
  26.1782094  46.7829280  46.5832599  27.0962094  46.8139280  46.8542599
  26.0322094  45.8709280  46.3342599  20.6312094  38.9999280  45.7392599
  21.4482094  38.9789280  46.2362599  20.9052094  38.9459280  44.8232599
  21.9192094  43.4659280  47.3502599  22.4752094  42.6899280  47.2812599
  22.4552094  44.1049280  47.8202599  25.1512094  43.2139280  40.9482599
  24.2392094  43.4819280  41.0642599  25.3852094  42.7949280  41.7772599
  13.5692094  42.3139280  46.8922599  14.0112094  42.5969280  47.6922599
  13.9642094  42.8439280  46.1992599  25.0442094  44.2329280  46.9342599
  25.9612094  44.0479280  46.7322599  24.5552094  43.8429280  46.2102599
  12.5632094  44.2869280  45.1542599  13.1252094  45.0289280  44.9312599
  12.3142094  44.4399280  46.0662599  24.2462094  42.7269280  44.3082599
  24.5102094  41.8639280  44.6272599  23.5202094  42.5489280  43.7092599
  36.0182094  45.7079280  42.9022599  36.0572094  45.4139280  43.8122599
  36.7272094  45.2329280  42.4672599  17.3072094  40.1989280  44.0262599
  16.7572094  40.2699280  43.2452599  18.1612094  40.5299280  43.7482599
  14.3982094  46.4419280  46.0002599  13.8292094  47.1939280  46.1652599
  15.1562094  46.5849280  46.5662599  23.0212094  41.7469280  42.1072599
  23.5802094  40.9709280  42.0692599  22.6762094  41.8379280  41.2192599
  21.0472094  45.1749280  43.0842599  20.2552094  45.6379280  42.8082599
  20.7382094  44.5299280  43.7202599  20.2782094  43.5619280  45.2782599
  20.8702094  43.5529280  46.0302599  19.5852094  42.9439280  45.5112599
  16.3542094  43.8739280  46.3622599  16.0382094  44.1069280  45.4892599
  16.6062094  42.9539280  46.2892599  27.2732094  41.4679280  42.0322599
  27.6202094  40.7839280  41.4592599  26.4122094  41.1439280  42.2972599
  20.8312094  38.8789280  42.4612599  20.0502094  38.6559280  41.9552599
  20.8362094  39.8359280  42.4872599  10.3612094  39.0189280  45.1882599
  11.3162094  39.0859280  45.1822599  10.0652094  39.8439280  45.5722599
  15.5452094  42.6139280  42.4742599  15.6362094  43.2569280  43.1772599
  14.7242094  42.1599280  42.6682599  10.6282094  44.6169280  42.5192599
  11.1902094  45.2839280  42.1242599  11.1632094  44.2349280  43.2152599
  25.6742094  46.4639280  42.2212599  26.3872094  46.8179280  42.7522599
  25.2382094  47.2359280  41.8592599  16.2732094  39.6119280  41.7892599
  15.5892094  38.9419280  41.7652599  15.8602094  40.3899280  41.4162599
  21.8582094  46.2319280  45.9692599  22.5502094  46.1109280  45.3192599
  21.5872094  45.3429280  46.1982599  19.4302094  44.7819280  48.4912599
  20.2512094  44.3549280  48.2482599  18.7642094  44.3379280  47.9662599
  34.9482094  41.2209280  44.5632599  35.4032094  40.4539280  44.2152599
  34.2282094  41.3709280  43.9512599  23.0572094  45.4529280  41.2742599
  22.3902094  45.2879280  41.9412599  23.6442094  46.0929280  41.6752599
  32.6382094  45.4059280  46.1132599  32.0732094  44.6429280  45.9922599
  32.9512094  45.6149280  45.2322599  23.8952094  45.4419280  44.5002599
  24.3842094  45.9509280  43.8532599  23.9722094  44.5359280  44.2002599
  36.7202094  39.1359280  43.9902599  37.3832094  39.1989280  43.3032599
  36.3302094  38.2699280  43.8682599   7.7462094  41.8729280  42.7202599
   8.0912094  42.3779280  41.9842599   6.8072094  41.8059280  42.5462599
   7.2182094  44.7709280  47.9032599   6.6402094  44.3299280  47.2792599
   7.8962094  45.1729280  47.3592599  19.2282094  42.2249280  40.9232599
  18.6362094  42.9479280  40.7162599  19.9032094  42.2659280  40.2452599
  13.2532094  41.9409280  43.9492599  12.9002094  42.8049280  44.1632599
  12.5632094  41.5219280  43.4342599  27.3502094  41.6849280  47.7882599
  27.9762094  41.1189280  48.2412599  26.6162094  41.7659280  48.3962599
  31.6182094  46.6689280  40.7802599  32.1872094  47.2689280  40.2982599
  32.1372094  46.4049280  41.5402599  27.6332094  44.1609280  46.5652599
  27.8772094  43.3749280  47.0532599  28.4682094  44.5359280  46.2822599
  31.9752094  40.5509280  46.5132599  31.3712094  39.8079280  46.5262599
  32.8452094  40.1519280  46.5182599  31.6922094  42.2219280  48.9512599
  31.8532094  41.5619280  48.2772599  32.5562094  42.3989280  49.3252599
  34.4252094  43.4059280  48.6752599  34.5782094  44.3269280  48.8882599
  34.7482094  43.3109280  47.7792599  30.2082094  46.8699280  44.1192599
  30.4022094  47.8059280  44.0642599  30.6252094  46.5859280  44.9332599
  25.5842094  40.2029280  45.1212599  25.3592094  39.4679280  45.6912599
  26.5402094  40.2429280  45.1482599  30.2752094  44.4809280  42.9002599
  30.3052094  45.3989280  43.1692599  29.7642094  44.4839280  42.0912599
  15.1102094  39.3649280  47.6752599  15.5732094  39.8399280  48.3652599
  14.7992094  40.0479280  47.0812599  33.2502094  44.6379280  43.4872599
  33.9632094  44.9119280  42.9102599  32.6632094  44.1369280  42.9212599
   8.9012094  43.1839280  44.8412599   8.5802094  42.7669280  44.0412599
   8.2732094  42.9249280  45.5152599  35.0762094  41.3749280  41.4032599
  34.3262094  40.8019280  41.5642599  34.7582094  42.2519280  41.6142599
  31.1882094  43.1429280  45.6852599  31.0722094  42.9589280  44.7532599
  31.4352094  42.3009280  46.0672599  34.6612094  46.7319280  47.9912599
  34.2662094  47.4919280  47.5632599  34.6402094  46.0449280  47.3252599
  11.8262094  46.6419280  40.9752599  11.7372094  47.5779280  41.1542599
  12.7672094  46.4759280  41.0302599  10.9732094  41.5749280  46.1552599
  11.9272094  41.6519280  46.1882599  10.6902094  42.3199280  45.6252599
  23.4242094  41.0289280  47.6502599  23.6852094  40.1529280  47.3672599
  24.2442094  41.4559280  47.8962599  28.3012094  40.5469280  45.3532599
  28.2982094  41.0959280  46.1382599  28.7482094  41.0759280  44.6922599
  32.7032094  40.5769280  42.8882599  31.8842094  41.0699280  42.8432599
  32.4662094  39.7549280  43.3172599  34.5442094  39.6159280  46.8812599
  34.8182094  40.0989280  46.1012599  35.2012094  38.9269280  46.9802599
   7.3162094  38.7149280  46.7582599   7.3212094  38.6429280  45.8032599
   7.8612094  37.9869280  47.0562599  24.9902094  39.9339280  42.6292599
  25.0052094  39.7439280  43.5672599  25.1832094  39.0939280  42.2112599
  10.9832094  41.0759280  42.1502599  10.3462094  41.5339280  41.6012599
  10.4562094  40.4899280  42.6922599  29.5032094  39.0389280  40.6342599
  30.0362094  38.7619280  41.3792599  30.1392094  39.2529280  39.9512599
   8.0562094  44.6529280  41.5192599   8.3852094  45.1069280  40.7432599
   8.8002094  44.6339280  42.1202599  41.3082094  -7.8890720  -5.6247401
  41.2082094  -7.1400720  -5.0377401  41.8532094  -8.5060720  -5.1367401
  44.1512094   5.7099280 -15.2527401  43.4462094   5.1529280 -14.9227401
  44.1762094   6.4489280 -14.6447401  43.8982094  -2.8540720   2.0842599
  43.5712094  -2.1990720   2.7022599  44.8402094  -2.6910720   2.0392599
  43.0662094 -14.5950720 -10.6847401  42.6012094 -15.3920720 -10.9377401
  43.0902094 -14.0680720 -11.4837401  37.8232094  -7.4910720 -10.8497401
  37.0002094  -7.1710720 -11.2217401  38.0962094  -8.1920720 -11.4407401
  42.8022094  -7.8780720 -10.4357401  42.9522094  -7.8470720  -9.4907401
  41.9412094  -7.4780720 -10.5557401  39.7202094 -14.4010720   9.4612599
  40.4612094 -13.9890720   9.9072599  40.0502094 -14.6040720   8.5862599
  39.5762094  -0.7940720 -15.5397401  40.3692094  -0.2580720 -15.5387401
  39.8602094  -1.6440720 -15.2037401  41.6192094   7.2219280   6.8482599
  42.0852094   6.5449280   6.3572599  40.9712094   7.5629280   6.2312599
  38.7762094 -13.6960720 -14.2477401  39.1002094 -14.4840720 -14.6827401
  39.5622094 -13.2700720 -13.9047401  41.5652094 -19.8690720  -2.7477401
  40.6342094 -19.7320720  -2.9217401  41.9552094 -19.9930720  -3.6127401
  44.0622094   5.3619280  -9.6277401  44.2792094   6.2449280  -9.3297401
  44.2042094   5.3859280 -10.5737401  45.5412094 -15.1800720 -15.8837401
  46.2052094 -14.6580720 -16.3337401  45.1752094 -14.5870720 -15.2267401
  44.9812094  -7.7940720 -12.2937401  44.3462094  -8.0550720 -11.6267401
  45.5522094  -8.5560720 -12.3927401  44.8362094  -4.2630720  -6.8837401
  44.3202094  -3.6700720  -6.3367401  44.8012094  -5.1030720  -6.4257401
  44.3952094 -13.3610720  10.4662599  44.5472094 -12.8220720  11.2422599
  45.2522094 -13.4230720  10.0452599  41.8742094 -17.9530720  -7.0387401
  41.0212094 -17.6140720  -7.3127401  42.4182094 -17.1730720  -6.9317401
  42.1042094  -7.4840720 -13.3317401  42.4302094  -8.2830720 -12.9167401
  41.5832094  -7.0560720 -12.6527401  40.1872094   2.1569280 -14.3927401
  39.7472094   1.5669280 -13.7807401  40.9782094   1.6859280 -14.6547401
  43.6462094  -2.5170720  -5.1747401  42.9842094  -2.6080720  -4.4897401
  44.2772094  -1.8930720  -4.8167401  44.5642094   7.2479280 -17.7057401
  43.8682094   6.7229280 -18.1007401  44.4742094   7.0959280 -16.7647401
  43.1942094 -20.6840720 -14.9227401  44.0432094 -21.0930720 -15.0917401
  43.3482094 -19.7490720 -15.0547401  45.8502094   1.5209280 -13.6587401
  46.3512094   1.1389280 -12.9377401  46.4922094   1.6459280 -14.3577401
  39.9512094 -11.2430720  -3.4467401  39.3852094 -10.7710720  -4.0577401
  39.3452094 -11.6960720  -2.8597401  40.9802094 -15.6350720  -0.8397401
  41.7232094 -16.1700720  -1.1177401  40.2292094 -16.0100720  -1.3007401
  44.4522094 -16.0770720  -8.6157401  43.8372094 -15.4990720  -9.0677401
  44.8282094 -16.6180720  -9.3097401  41.6772094 -17.2490720 -10.7747401
  41.0062094 -17.8870720 -10.5347401  41.9392094 -17.4970720 -11.6607401
  41.1832094 -11.5320720  -0.1497401  41.8932094 -12.0750720  -0.4937401
  41.3232094 -10.6730720  -0.5487401  43.3852094   7.2219280 -11.9937401
  42.8102094   7.7579280 -11.4487401  44.1262094   7.7929280 -12.1967401
  44.5442094  -6.6160720  -5.2797401  43.9282094  -6.9030720  -4.6057401
  44.8992094  -7.4290720  -5.6407401  38.7632094 -19.7270720  -7.0067401
  38.8572094 -20.1660720  -7.8517401  38.9682094 -18.8100720  -7.1877401
  43.0652094 -10.4300720   8.9672599  43.8722094 -10.3550720   9.4752599
  42.3832094 -10.5880720   9.6202599  41.8942094  -6.1440720   3.7422599
  41.7512094  -5.6640720   2.9262599  42.1582094  -5.4730720   4.3712599
  40.1022094  -5.1090720  -5.0227401  40.7152094  -4.4590720  -4.6807401
  39.4322094  -5.1890720  -4.3437401  42.2532094  -9.3660720  -1.2407401
  43.0192094  -9.8480720  -1.5527401  41.8762094  -8.9780720  -2.0307401
  41.5442094   3.0849280  -6.2527401  42.3692094   3.5169280  -6.4757401
  41.0612094   3.7359280  -5.7447401  43.2732094  -6.7060720  -7.9427401
  42.6542094  -6.1870720  -8.4557401  43.1832094  -6.3720720  -7.0497401
  45.6892094 -17.4260720 -10.7737401  46.0502094 -17.1100720 -11.6017401
  46.1682094 -18.2360720 -10.5967401  43.0852094   4.6089280  -3.6017401
  42.1642094   4.8369280  -3.7267401  43.4432094   4.5629280  -4.4877401
  41.3592094 -13.5240720 -12.8277401  40.7872094 -13.2330720 -12.1177401
  41.5102094 -12.7380720 -13.3527401  40.7342094   7.6309280  -4.9977401
  40.6402094   7.1669280  -5.8297401  41.2652094   8.3989280  -5.2097401
  44.8332094  -5.9750720 -18.8247401  45.3252094  -6.6580720 -18.3697401
  45.3372094  -5.1750720 -18.6747401  42.9292094 -10.0140720  -7.0997401
  42.6972094  -9.7950720  -6.1967401  43.7722094  -9.5840720  -7.2407401
  38.3872094  -3.7520720  10.0632599  39.0922094  -3.4660720  10.6432599
  38.8342094  -4.1940720   9.3422599  39.6632094  -8.1310720  -7.8687401
  40.1542094  -8.2460720  -7.0547401  39.5802094  -7.1820720  -7.9657401
  41.2682094 -10.5920720  -9.1947401  40.5452094  -9.9810720  -9.0577401
  41.8742094 -10.4120720  -8.4747401  39.6572094 -19.2950720  -9.8997401
  39.1082094 -18.5570720 -10.1667401  39.0692094 -20.0500720  -9.9187401
  40.2072094  -5.4740720  -7.7897401  40.1622094  -5.4040720  -6.8357401
  40.2962094  -4.5700720  -8.0927401  45.2322094  -3.2800720  -2.1157401
  45.0002094  -3.9870720  -1.5137401  45.4292094  -3.7230720  -2.9407401
  45.2072094 -20.5130720  -5.3227401  45.3742094 -19.7600720  -5.8897401
  45.7722094 -20.3700720  -4.5617401  41.0432094   6.7029280 -13.2757401
  40.7202094   7.5579280 -13.5607401  41.9272094   6.8749280 -12.9537401
  39.3102094   0.5669280  -1.5257401  40.0292094   0.2449280  -2.0677401
  39.4942094   1.4989280  -1.4107401  42.9902094  -5.4860720 -15.0737401
  43.7822094  -5.9220720 -15.3877401  42.8052094  -5.9030720 -14.2317401
  43.9222094 -11.1550720  -2.4737401  44.8582094 -11.3520720  -2.5117401
  43.5182094 -11.9660720  -2.1647401  45.3182094  -4.2420720  -9.7017401
  45.2992094  -3.3240720  -9.9747401  45.1842094  -4.2130720  -8.7547401
  44.9152094  -8.3120720   7.3822599  44.6872094  -8.8290720   8.1552599
  45.6132094  -7.7290720   7.6792599  41.6192094 -21.5940720 -10.2337401
  42.1412094 -21.2350720  -9.5167401  40.8952094 -20.9760720 -10.3367401
  40.3852094  -6.2770720 -11.3907401  39.7872094  -6.1500720 -12.1267401
  39.9132094  -6.8570720 -10.7947401  43.5382094  -9.0340720   1.4162599
  42.9512094  -8.9280720   0.6672599  43.9952094  -8.1960720   1.4832599
  39.3812094 -19.1310720  -4.3657401  39.1732094 -19.5490720  -5.2017401
  39.9462094 -18.3940720  -4.6007401  42.4762094  -4.9670720 -18.1417401
  43.3852094  -5.1630720 -17.9127401  42.2822094  -5.5530720 -18.8727401
  43.1482094 -20.2680720  -8.5467401  43.8962094 -19.6730720  -8.5027401
  42.3892094 -19.7140720  -8.3627401  43.2692094  -9.8080720 -16.2597401
  42.4492094  -9.3150720 -16.2967401  43.9072094  -9.1860720 -15.9107401
  43.5692094 -17.6860720 -13.1077401  44.0112094 -17.4030720 -12.3077401
  43.9642094 -17.1560720 -13.8007401  43.6192094 -12.3230720  -9.7177401
  42.8412094 -11.7680720  -9.7747401  43.3802094 -13.1210720 -10.1897401
  43.0822094  -2.2150720  -8.8887401  42.4192094  -1.9700720  -8.2437401
  42.6102094  -2.7510720  -9.5257401  45.1892094  -7.7630720 -15.0987401
  45.8712094  -7.1490720 -15.3697401  45.1132094  -7.6360720 -14.1527401
  45.7792094  -1.5560720  -7.7287401  44.8792094  -1.8810720  -7.7637401
  45.6882094  -0.6090720  -7.6207401  41.2252094   5.6919280  -9.4327401
  42.1602094   5.4839280  -9.4307401  41.1872094   6.6229280  -9.6507401
  45.0112094 -11.8590720 -17.4837401  45.8862094 -12.1690720 -17.2517401
  44.5572094 -11.7700720 -16.6457401  42.5792094 -11.7270720   2.1582599
  41.6752094 -11.4800720   2.3522599  43.0692094 -10.9070720   2.2132599
  42.5632094 -15.7130720 -14.8457401  43.1252094 -14.9710720 -15.0687401
  42.3142094 -15.5600720 -13.9337401  40.2302094  -8.6910720   6.2232599
  40.7222094  -8.8390720   5.4162599  39.9192094  -9.5600720   6.4782599
  42.8612094   2.0559280 -19.3037401  43.2822094   2.3049280 -18.4807401
  43.5712094   1.7009280 -19.8377401  40.2152094  -3.2960720 -17.9527401
  40.3442094  -2.3480720 -17.9237401  41.0602094  -3.6450720 -18.2337401
  42.8512094 -13.3890720  -1.1337401  43.4502094 -13.6850720  -0.4477401
  42.3762094 -14.1780720  -1.3937401  43.0982094 -15.3000720   3.7902599
  43.0512094 -16.2560720   3.7752599  42.4452094 -15.0170720   3.1512599
  40.7422094  -8.7820720 -16.1107401  39.9092094  -9.1500720 -15.8137401
  40.6492094  -7.8390720 -15.9747401  40.6602094 -11.9610720   7.7612599
  40.8962094 -12.8470720   7.4872599  41.2852094 -11.7490720   8.4542599
  42.8832094 -15.0030720   8.5792599  43.4602094 -14.7800720   7.8492599
  43.4172094 -14.8570720   9.3602599  39.8232094 -12.3760720  -6.7307401
  39.3122094 -11.7550720  -6.2127401  39.1712094 -12.9570720  -7.1207401
  42.3442094 -10.0950720  -4.2677401  41.5802094 -10.5150720  -3.8737401
  43.0942094 -10.5410720  -3.8727401  41.5612094 -19.5290720   3.2062599
  42.2322094 -18.9770720   3.6092599  40.9412094 -18.9100720   2.8222599
  44.9892094  -5.0200720 -12.3217401  44.8022094  -5.9500720 -12.1967401
  45.0202094  -4.6590720 -11.4357401  38.9622094 -20.9380720   9.5502599
  39.7622094 -20.4920720   9.8282599  38.2952094 -20.2510720   9.5422599
  40.2262094   6.3919280   9.1842599  40.4532094   6.1979280   8.2742599
  40.0922094   7.3389280   9.2012599  45.3462094 -10.1560720  10.1312599
  46.2942094 -10.0260720  10.1392599  45.1772094 -10.7420720  10.8692599
  44.5982094 -13.3170720   3.1532599  44.1912094 -14.1750720   3.2712599
  44.0852094 -12.9010720   2.4602599  43.1462094 -19.0780720  10.2662599
  42.5902094 -19.1500720  11.0412599  42.6622094 -19.5360720   9.5792599
  45.3762094  -4.4110720   4.2042599  46.2562094  -4.4960720   4.5702599
  45.1622094  -3.4830720   4.3052599  44.3982094 -13.5580720 -13.9997401
  43.8292094 -12.8060720 -13.8347401  45.1562094 -13.4150720 -13.4337401
  42.0822094  -2.7110720 -12.8947401  42.4792094  -1.8660720 -12.6817401
  42.5962094  -3.0380720 -13.6327401  38.0652094   7.5689280 -18.1687401
  38.3652094   8.0809280 -18.9197401  38.2252094   6.6589280 -18.4187401
  44.0962094 -16.9940720  -3.9147401  43.6142094 -16.4420720  -4.5297401
  43.4692094 -17.1790720  -3.2157401  38.8042094 -11.9030720   5.8202599
  39.5132094 -12.0270720   6.4512599  39.2402094 -11.5960720   5.0262599
  42.3022094 -17.5580720   7.4872599  41.3742094 -17.4230720   7.2962599
  42.5362094 -16.8340720   8.0672599  41.7552094  -8.8030720   3.9592599
  41.7142094  -7.8570720   4.1012599  42.0712094  -8.8960720   3.0602599
  44.3982094  -9.7490720   5.0082599  43.5572094  -9.4280720   4.6802599
  44.7472094  -9.0230720   5.5242599  37.3542094 -12.7560720   0.9852599
  37.0702094 -13.5590720   1.4212599  37.1682094 -12.0610720   1.6162599
  40.7442094 -14.3730720   6.6582599  41.5442094 -14.8920720   6.7422599
  40.5982094 -14.3090720   5.7142599  38.1782094  -7.3840720  10.2532599
  38.7262094  -6.6200720  10.0712599  38.1362094  -7.4270720  11.2082599
  38.0622094 -18.1460720   4.5742599  37.7432094 -19.0230720   4.3632599
  38.8252094 -18.0250720   4.0082599  45.1342094 -14.4670720   0.3502599
  45.1112094 -15.4230720   0.3232599  45.9742094 -14.2580720   0.7602599
  38.3092094 -15.5100720  -9.7447401  37.8362094 -15.2430720 -10.5327401
  39.1082094 -14.9830720  -9.7537401  39.8622094  -2.7810720  -8.4097401
  40.3712094  -2.2340720  -7.8117401  40.2422094  -2.6110720  -9.2717401
  39.3552094 -16.8870720  -7.2957401  38.8792094 -16.5460720  -8.0527401
  39.0312094 -16.3730720  -6.5567401  42.1872094   7.9559280  -1.1417401
  42.3212094   8.1049280  -0.2057401  41.8022094   8.7719280  -1.4617401
  40.5142094   3.0409280  -0.0177401  41.3932094   2.6649280  -0.0627401
  40.6042094   3.9089280  -0.4107401  37.2252094  -0.0860720 -14.6867401
  38.1182094  -0.4090720 -14.8027401  36.6772094  -0.7270720 -15.1407401
  41.8652094   0.9259280  -2.8007401  42.4642094   1.6719280  -2.7697401
  42.3982094   0.1799280  -2.5247401  42.9852094  -0.1670720 -12.6207401
  43.6412094   0.2159280 -12.0387401  42.1692094  -0.1290720 -12.1217401
  39.4972094  -2.7770720 -13.8617401  38.8502094  -2.9380720 -13.1737401
  40.3422094  -2.9120720 -13.4327401  43.0392094   5.8239280  10.5532599
  42.4432094   5.9869280   9.8212599  42.5492094   5.2449280  11.1372599
  44.4522094   1.5249280 -15.9937401  44.7602094   2.2879280 -16.4817401
  44.8332094   1.6279280 -15.1217401  41.4602094  -1.4170720  -6.8167401
  41.0312094  -0.6080720  -6.5397401  42.2212094  -1.4940720  -6.2407401
  40.4342094  -6.0800720 -16.1757401  40.8232094  -5.4220720 -16.7517401
  40.9872094  -6.0720720 -15.3947401  41.3662094  -3.7830720 -10.4567401
  41.4182094  -3.4020720 -11.3327401  40.7792094  -4.5320720 -10.5547401
  43.8922094   3.3029280 -12.3617401  44.5012094   2.8199280 -12.9197401
  43.2392094   3.6549280 -12.9667401  37.9682094  -3.7860720 -16.3157401
  38.5622094  -3.7310720 -15.5667401  38.4932094  -3.4950720 -17.0607401
  44.1002094   4.4919280  -6.3687401  43.9482094   5.4279280  -6.2407401
  45.0482094   4.3899280  -6.2847401  37.8022094  -6.8210720 -16.9527401
  37.1732094  -6.1100720 -16.8337401  38.6532094  -6.4210720 -16.7757401
  44.8652094  -5.9270720  -1.1587401  44.5682094  -5.9580720  -0.2497401
  45.6422094  -6.4860720  -1.1777401  41.5522094   0.9979280  -8.4807401
  41.0132094   1.4479280  -7.8297401  42.2432094   1.6249280  -8.6947401
  40.4952094   0.7849280  -5.2117401  40.8322094   1.5409280  -5.6927401
  41.0052094   0.7679280  -4.4017401  38.1792094 -21.5690720   6.3512599
  38.9642094 -21.4980720   5.8082599  38.4292094 -21.1750720   7.1872599
  37.9692094  -4.8770720  -3.4687401  37.3652094  -5.3110720  -2.8657401
  37.4942094  -4.1020720  -3.7677401  43.9262094   2.6139280  -9.4007401
  44.0262094   3.5219280  -9.1157401  44.0562094   2.6439280 -10.3487401
  40.5182094  -2.1910720  -1.1847401  39.6292094  -1.9980720  -0.8857401
  41.0822094  -1.8870720  -0.4747401  40.2932094   0.3819280 -11.2057401
  40.6062094   1.1389280 -10.7097401  39.3392094   0.4589280 -11.1847401
  44.2492094  -0.1140720 -10.1087401  44.4502094   0.6479280  -9.5647401
  43.7362094  -0.6870720  -9.5387401  40.3612094 -20.9810720 -14.8117401
  41.3162094 -20.9140720 -14.8177401  40.0652094 -20.1560720 -14.4277401
  45.1812094  -0.2420720  -4.7257401  46.0792094  -0.2320720  -4.3947401
  45.1652094   0.4379280  -5.3987401  45.4282094  -1.8390720   5.8772599
  45.2352094  -2.3790720   6.6442599  46.3832094  -1.8400720   5.8172599
  45.1532094   1.6369280   5.2142599  45.8182094   1.1369280   4.7412599
  45.1422094   2.4909280   4.7802599  44.3872094 -19.3790720   0.4112599
  44.9392094 -20.1450720   0.2542599  43.6362094 -19.7200720   0.8982599
  43.9562094   6.9089280  -5.1527401  44.5472094   7.6419280  -4.9787401
  43.1512094   7.1339280  -4.6867401  38.6412094   8.1469280  -3.4927401
  38.6202094   9.0979280  -3.3817401  39.4722094   7.9759280  -3.9357401
  44.0202094  -1.0220720  -1.4957401  44.6382094  -1.7190720  -1.7147401
  43.4622094  -1.4000720  -0.8157401  43.3202094   1.9419280   0.7142599
  43.5142094   1.7249280  -0.1977401  44.1472094   2.2779280   1.0622599
  38.8682094   6.8859280 -11.8037401  39.5372094   6.3769280 -12.2597401
  38.0832094   6.3399280 -11.8417401  40.5412094   3.1449280 -10.3197401
  40.9432094   3.9809280 -10.0847401  39.7052094   3.3849280 -10.7207401
  38.6002094   5.1909280 -18.9897401  39.3762094   5.5039280 -19.4547401
  38.4222094   4.3319280 -19.3717401  38.6992094  -2.5040720  -5.7797401
  38.0092094  -2.1190720  -6.3197401  39.1922094  -3.0610720  -6.3827401
  41.1322094   5.3029280  -1.2397401  40.9502094   5.2559280  -2.1777401
  41.6402094   6.1079280  -1.1347401  40.6282094 -15.3830720 -17.4807401
  41.1902094 -14.7160720 -17.8757401  41.1632094 -15.7650720 -16.7847401
  44.3822094   0.9109280   8.7272599  43.7952094   0.8009280   7.9792599
  45.2612094   0.8359280   8.3542599  37.3242094 -18.0050720 -13.5487401
  37.1792094 -18.9190720 -13.7907401  37.2602094 -17.9970720 -12.5937401
  42.2422094 -20.5640720   8.2312599  42.4242094 -19.7550720   7.7542599
  42.1112094 -21.2210720   7.5472599  41.9352094   4.8659280 -17.3047401
  42.0182094   4.1449280 -16.6807401  41.1152094   5.2969280 -17.0667401
  44.1822094  -5.5690720   1.3482599  43.6082094  -5.8270720   2.0702599
  44.1812094  -4.6120720   1.3722599  42.7052094  -0.7000720 -18.7517401
  41.8002094  -0.6610720 -19.0617401  43.0562094   0.1729280 -18.9257401
  42.8142094   3.9679280   2.6812599  43.3222094   4.3629280   1.9722599
  42.4542094   3.1669280   2.3012599  40.7572094  -0.5910720   8.5452599
  39.8832094  -0.7040720   8.1722599  41.3512094  -0.9030720   7.8642599
  44.9882094  -3.9570720   7.5802599  45.1382094  -3.4710720   8.3912599
  45.8582094  -4.2510720   7.3112599  45.1992094   4.0489280   9.7232599
  44.5342094   4.4339280  10.2942599  44.7562094   3.9319280   8.8832599
  37.0852094   4.1279280   3.5692599  36.9722094   3.3319280   4.0882599
  38.0252094   4.1679280   3.3922599  42.6732094  -4.5360720   6.0732599
  42.5642094  -5.4430720   6.3612599  43.5312094  -4.2790720   6.4112599
  42.0562094   0.4419280 -14.8927401  42.6712094   0.7729280 -15.5477401
  42.5752094   0.3709280 -14.0907401  38.3712094   2.3039280 -17.1037401
  38.8912094   1.8079280 -17.7357401  38.8092094   2.1579280 -16.2657401
  38.4632094  -0.6430720   2.9402599  38.7132094  -1.3110720   2.3022599
  39.1492094   0.0209280   2.8742599  44.6002094   4.6379280   0.6712599
  44.6122094   5.0849280  -0.1747401  45.4292094   4.8829280   1.0832599
  39.0972094   4.4789280   7.0522599  38.2172094   4.8169280   6.8902599
  38.9972094   3.9029280   7.8102599  44.0922094   8.0949280   5.0162599
  44.5922094   7.5609280   5.6332599  44.7242094   8.3359280   4.3392599
  45.4402094 -20.2970720   8.7572599  44.7832094 -20.1560720   9.4392599
  45.3762094 -21.2310720   8.5532599  44.4662094   4.8469280   6.9092599
  43.5412094   4.7209280   6.6962599  44.9072094   4.8619280   6.0602599
  44.3272094   5.9829280  -1.7017401  44.0162094   5.7119280  -2.5657401
  43.7282094   6.6819280  -1.4397401  45.2202094   7.6039280  -8.8487401
  45.7992094   7.2819280  -8.1587401  44.6982094   8.2849280  -8.4247401
  45.6102094   7.0229280   8.4112599  45.2842094   6.4389280   7.7262599
  45.2082094   6.6959280   9.2162599  42.6892094 -21.3880720   1.5112599
  42.3392094 -20.7610720   2.1442599  42.5512094 -22.2430720   1.9202599
  37.2482094 -14.8360720  -1.8027401  37.9662094 -14.2320720  -1.6137401
  36.9052094 -14.5430720  -2.6467401  37.6502094   1.3269280  -6.1277401
  37.4002094   0.4189280  -6.2977401  38.5472094   1.2719280  -5.7987401
  42.8032094 -17.6480720  -1.4237401  43.3172094 -18.1490720  -0.7917401
  42.2972094 -18.3080720  -1.8987401  42.6182094 -12.6390720  -6.0397401
  41.7322094 -12.7200720  -5.6877401  42.5942094 -11.8410720  -6.5687401
  38.4302094   3.8179280  -8.2967401  39.0712094   3.2349280  -8.7037401
  37.6282094   3.2979280  -8.2487401  37.7462094 -18.1270720 -17.2797401
  38.0912094 -17.6220720 -18.0157401  36.8072094 -18.1940720 -17.4537401
  38.8832094  -7.0010720 -13.7317401  38.2612094  -7.0510720 -14.4587401
  38.9492094  -7.9000720 -13.4107401  37.3612094  -9.7310720  -7.7797401
  37.6282094  -9.9590720  -6.8897401  38.0872094  -9.2110720  -8.1227401
  41.9802094   4.2489280 -14.1377401  41.5402094   5.0729280 -13.9257401
  41.2672094   3.6309280 -14.2977401  37.2182094 -15.2290720 -12.0967401
  36.6402094 -15.6700720 -12.7207401  37.8962094 -14.8270720 -12.6407401
  42.5982094 -19.9250720  -5.2847401  43.5402094 -20.0180720  -5.4317401
  42.3072094 -19.3190720  -5.9657401  45.7372094 -17.1650720   0.0422599
  46.3442094 -17.4680720   0.7182599  45.0022094 -17.7770720   0.0892599
  41.3722094  -2.3030720  -3.8237401  40.4622094  -2.1050720  -4.0447401
  41.4242094  -2.1710720  -2.8777401  39.8832094 -17.4740720   2.4852599
  39.4932094 -17.9770720   1.7702599  40.1872094 -16.6660720   2.0702599
  39.8242094 -12.6370720 -10.7517401  40.2472094 -12.4350720  -9.9167401
  38.9582094 -12.2360720 -10.6847401  39.1542094 -13.3120720  -0.9587401
  40.0052094 -12.9080720  -0.7907401  38.5962094 -13.0020720  -0.2457401
  43.2532094 -18.0590720 -16.0507401  42.9002094 -17.1950720 -15.8367401
  42.5632094 -18.4780720 -16.5657401  43.0742094 -11.2830720 -14.0217401
  42.8232094 -10.7270720 -13.2837401  43.0602094 -10.6980720 -14.7787401
  41.2862094  -4.3300720   1.5182599  40.7452094  -3.9340720   0.8352599
  41.9722094  -3.6830720   1.6862599  38.4422094 -14.7530720  -5.2227401
  37.5542094 -14.8260720  -4.8757401  38.7352094 -13.8830720  -4.9527401
  38.3912094  -3.2320720 -11.2267401  38.9742094  -3.1040720 -10.4777401
  37.6012094  -3.6220720 -10.8527401  42.3562094  -7.0450720  -3.0077401
  43.0282094  -7.1270720  -2.3317401  41.6072094  -6.6560720  -2.5567401
  41.5932094 -10.6940720 -18.3377401  40.8872094 -10.1210720 -18.0387401
  42.3112094 -10.5300720 -17.7257401  45.7012094  -2.6390720 -14.6917401
  45.6322094  -3.5690720 -14.4757401  45.0612094  -2.5070720 -15.3907401
  38.1022094  -9.3660720 -15.8727401  37.9542094  -8.7040720 -16.5477401
  37.4322094 -10.0300720 -16.0367401  38.1662094  -9.7800720 -12.9197401
  37.9932094  -9.9950720 -13.8367401  38.0252094 -10.6020720 -12.4497401
  39.7902094  -5.1790720   8.2192599  39.5562094  -5.5220720   7.3572599
  40.7222094  -5.3790720   8.3122599  38.1632094  -7.6410720   7.4102599
  38.4652094  -7.5540720   8.3142599  38.9312094  -7.9490720   6.9292599
  37.8702094 -17.0830720   7.1942599  38.0092094 -17.2290720   6.2592599
  38.0642094 -16.1550720   7.3242599  40.1042094 -11.3080720   3.5342599
  39.5132094 -10.7400720   3.0392599  40.6872094 -10.7040720   3.9942599
  39.8362094 -14.4920720   3.9442599  40.1032094 -13.6800720   3.5122599
  39.2912094 -14.9400720   3.2962599  40.4222094  -2.8660720   5.4052599
  39.7972094  -3.5900720   5.4292599  41.2702094  -3.2730720   5.5822599
  42.3702094  -6.3190720   9.3452599  42.4372094  -6.9180720   8.6022599
  43.2782094  -6.1470720   9.5962599  38.9012094 -16.8160720 -15.1587401
  38.5802094 -17.2330720 -15.9587401  38.2732094 -17.0750720 -14.4847401
  43.3492094  -0.0330720   5.9932599  43.8102094   0.7449280   5.6802599
  43.9882094  -0.7410720   5.9072599  39.7042094 -17.7730720   9.6082599
  39.5272094 -16.8340720   9.6512599  39.1922094 -18.0810720   8.8602599
  39.4412094  -5.6020720   5.3262599  38.6802094  -6.0950720   5.0212599
  40.1942094  -6.1120720   5.0272599  37.3082094 -14.3900720   5.6502599
  38.1882094 -14.2560720   5.2962599  36.8652094 -13.5520720   5.5152599
  42.4652094 -10.0080720 -11.8377401  42.0322094 -10.6410720 -11.2637401
  42.7622094  -9.3150720 -11.2487401  43.2392094 -15.5250720  -6.3957401
  43.9492094 -15.6380720  -7.0277401  43.1672094 -14.5780720  -6.2817401
  37.6962094 -11.7980720  -5.4877401  37.0142094 -11.7830720  -4.8157401
  37.4122094 -12.4750720  -6.1027401  40.3242094  -5.6550720  -1.9437401
  40.4752094  -4.8280720  -1.4867401  39.5112094  -5.5160720  -2.4297401
  37.0612094 -12.3360720   8.0642599  37.6272094 -12.0670720   7.3402599
  37.6402094 -12.8150720   8.6572599  41.1012094  -7.2480720   0.7102599
  40.5112094  -6.5180720   0.8952599  41.0572094  -7.3570720  -0.2397401
  42.6482094  -7.2470720   6.7512599  42.0382094  -7.8820720   6.3742599
  43.4552094  -7.7420720   6.8882599  37.8382094  -7.4400720   4.1392599
  36.8992094  -7.6160720   4.1952599  38.1682094  -8.0930720   3.5222599
  39.2412094  -9.0590720   2.2862599  39.9652094  -8.5150720   1.9772599
  38.5062094  -8.8250720   1.7202599  41.8262094 -13.3580720 -19.0247401
  41.7372094 -12.4220720 -18.8457401  42.7672094 -13.5240720 -18.9697401
  40.7662094 -16.2700720  -4.6627401  41.4742094 -15.8170720  -5.1217401
  40.0342094 -15.6530720  -4.6817401  39.6212094   7.8839280   1.9362599
  38.9542094   7.1989280   1.9182599  39.3312094   8.5189280   1.2812599
  38.8972094 -17.0050720  -2.0237401  38.4552094 -17.4510720  -2.7467401
  38.2682094 -16.3470720  -1.7277401  40.9732094 -18.4250720 -13.8447401
  41.9272094 -18.3480720 -13.8117401  40.6902094 -17.6800720 -14.3747401
  38.2202094   4.0399280  -5.4147401  37.3962094   3.6759280  -5.0927401
  38.4182094   3.5279280  -6.1987401  39.1212094   8.1239280  -0.7437401
  39.4342094   7.2199280  -0.7307401  38.6982094   8.2189280  -1.5977401
  38.3432094  -3.1030720   0.6542599  37.4582094  -2.7830720   0.4802599
  38.2222094  -4.0180720   0.9092599  39.2672094   6.7699280 -15.8777401
  38.8352094   7.2109280 -16.6087401  39.6542094   7.4799280 -15.3647401
  39.9232094   1.6779280   2.3182599  40.0762094   2.0469280   1.4492599
  39.7342094   2.4359280   2.8712599  40.2402094   5.2039280  -3.8137401
  39.5992094   4.7299280  -4.3427401  40.3032094   6.0649280  -4.2267401
  38.3952094   2.8149280   9.5902599  37.9392094   2.0249280   9.8792599
  39.3062094   2.5409280   9.4822599  38.0702094  -5.6710720   1.6102599
  38.2072094  -5.9170720   2.5252599  37.2302094  -6.0680720   1.3782599
  44.3212094   2.0659280  -1.8687401  44.1472094   2.8779280  -2.3427401
  44.6702094   1.4699280  -2.5317401  42.0002094  -0.9590720   0.9482599
  42.0862094  -0.0310720   1.1662599  42.0742094  -1.4110720   1.7882599
  40.0672094   5.8989280  -7.1187401  39.2112094   5.4739280  -7.1707401
  40.4552094   5.7659280  -7.9827401  37.3582094   4.3079280 -15.7437401
  37.7902094   3.7659280 -16.4047401  38.0312094   4.9289280 -15.4657401
  37.8102094   3.5209280   0.4402599  38.7382094   3.3039280   0.5272599
  37.7782094   4.1519280  -0.2777401  38.1082094   8.3949280  -9.4377401
  38.6062094   7.8339280 -10.0337401  37.2652094   8.5189280  -9.8737401
  37.3162094 -21.2850720 -13.2417401  37.3212094 -21.3570720 -14.1967401
  37.8612094 -22.0130720 -12.9437401  45.0332094 -16.9100720   9.4452599
  45.4082094 -16.8250720  10.3212599  44.5502094 -17.7360720   9.4692599
  37.7382094   1.4689280 -10.9997401  37.3732094   1.8739280 -11.7857401
  37.0442094   1.5469280 -10.3447401  38.6712094  -1.0510720   6.7352599
  39.1782094  -1.6800720   6.2212599  38.0652094  -0.6600720   6.1052599
  40.0302094   4.1479280   3.7632599  40.9562094   3.9329280   3.6482599
  40.0352094   5.0039280   4.1922599  40.9832094 -18.9240720 -17.8497401
  40.3462094 -18.4660720 -18.3987401  40.4562094 -19.5100720 -17.3077401
  40.3602094   8.1339280   4.4792599  40.0822094   7.9359280   3.5852599
  40.7962094   8.9839280   4.4132599  39.8912094  -0.4030720 -18.8507401
  39.0502094   0.0549280 -18.8417401  40.0772094  -0.5430720 -19.7797401
  42.2262094  -1.3040720   3.9322599  42.6202094  -0.7580720   4.6122599
  41.4202094  -1.6360720   4.3282599  39.2512094 -19.1220720   0.2542599
  39.2232094 -18.4630720  -0.4397401  38.5792094 -19.7580720   0.0092599
  38.0562094 -15.3470720 -18.4807401  38.3852094 -14.8930720 -19.2567401
  38.8002094 -15.3660720 -17.8797401  41.7502094   4.2979280   6.5882599
  40.8152094   4.4639280   6.7052599  41.8882094   3.4269280   6.9622599
  41.3082094  -7.8890720  24.3752599  41.2082094  -7.1400720  24.9622599
  41.8532094  -8.5060720  24.8632599  44.1512094   5.7099280  14.7472599
  43.4462094   5.1529280  15.0772599  44.1762094   6.4489280  15.3552599
  43.8982094  -2.8540720  32.0842599  43.5712094  -2.1990720  32.7022599
  44.8402094  -2.6910720  32.0392599  43.0662094 -14.5950720  19.3152599
  42.6012094 -15.3920720  19.0622599  43.0902094 -14.0680720  18.5162599
  37.8232094  -7.4910720  19.1502599  37.0002094  -7.1710720  18.7782599
  38.0962094  -8.1920720  18.5592599  42.8022094  -7.8780720  19.5642599
  42.9522094  -7.8470720  20.5092599  41.9412094  -7.4780720  19.4442599
  39.7202094 -14.4010720  39.4612599  40.4612094 -13.9890720  39.9072599
  40.0502094 -14.6040720  38.5862599  39.5762094  -0.7940720  14.4602599
  40.3692094  -0.2580720  14.4612599  39.8602094  -1.6440720  14.7962599
  41.6192094   7.2219280  36.8482599  42.0852094   6.5449280  36.3572599
  40.9712094   7.5629280  36.2312599  38.7762094 -13.6960720  15.7522599
  39.1002094 -14.4840720  15.3172599  39.5622094 -13.2700720  16.0952599
  41.5652094 -19.8690720  27.2522599  40.6342094 -19.7320720  27.0782599
  41.9552094 -19.9930720  26.3872599  44.0622094   5.3619280  20.3722599
  44.2792094   6.2449280  20.6702599  44.2042094   5.3859280  19.4262599
  45.5412094 -15.1800720  14.1162599  46.2052094 -14.6580720  13.6662599
  45.1752094 -14.5870720  14.7732599  44.9812094  -7.7940720  17.7062599
  44.3462094  -8.0550720  18.3732599  45.5522094  -8.5560720  17.6072599
  44.8362094  -4.2630720  23.1162599  44.3202094  -3.6700720  23.6632599
  44.8012094  -5.1030720  23.5742599  44.3952094 -13.3610720  40.4662599
  44.5472094 -12.8220720  41.2422599  45.2522094 -13.4230720  40.0452599
  41.8742094 -17.9530720  22.9612599  41.0212094 -17.6140720  22.6872599
  42.4182094 -17.1730720  23.0682599  42.1042094  -7.4840720  16.6682599
  42.4302094  -8.2830720  17.0832599  41.5832094  -7.0560720  17.3472599
  40.1872094   2.1569280  15.6072599  39.7472094   1.5669280  16.2192599
  40.9782094   1.6859280  15.3452599  43.6462094  -2.5170720  24.8252599
  42.9842094  -2.6080720  25.5102599  44.2772094  -1.8930720  25.1832599
  44.5642094   7.2479280  12.2942599  43.8682094   6.7229280  11.8992599
  44.4742094   7.0959280  13.2352599  43.1942094 -20.6840720  15.0772599
  44.0432094 -21.0930720  14.9082599  43.3482094 -19.7490720  14.9452599
  45.8502094   1.5209280  16.3412599  46.3512094   1.1389280  17.0622599
  46.4922094   1.6459280  15.6422599  39.9512094 -11.2430720  26.5532599
  39.3852094 -10.7710720  25.9422599  39.3452094 -11.6960720  27.1402599
  40.9802094 -15.6350720  29.1602599  41.7232094 -16.1700720  28.8822599
  40.2292094 -16.0100720  28.6992599  44.4522094 -16.0770720  21.3842599
  43.8372094 -15.4990720  20.9322599  44.8282094 -16.6180720  20.6902599
  41.6772094 -17.2490720  19.2252599  41.0062094 -17.8870720  19.4652599
  41.9392094 -17.4970720  18.3392599  43.3852094   7.2219280  18.0062599
  42.8102094   7.7579280  18.5512599  44.1262094   7.7929280  17.8032599
  44.5442094  -6.6160720  24.7202599  43.9282094  -6.9030720  25.3942599
  44.8992094  -7.4290720  24.3592599  38.7632094 -19.7270720  22.9932599
  38.8572094 -20.1660720  22.1482599  38.9682094 -18.8100720  22.8122599
  43.0652094 -10.4300720  38.9672599  43.8722094 -10.3550720  39.4752599
  42.3832094 -10.5880720  39.6202599  41.8942094  -6.1440720  33.7422599
  41.7512094  -5.6640720  32.9262599  42.1582094  -5.4730720  34.3712599
  40.1022094  -5.1090720  24.9772599  40.7152094  -4.4590720  25.3192599
  39.4322094  -5.1890720  25.6562599  42.2532094  -9.3660720  28.7592599
  43.0192094  -9.8480720  28.4472599  41.8762094  -8.9780720  27.9692599
  41.6572094 -14.5730720  31.7092599  41.5632094 -14.8470720  30.7962599
  41.6472094 -13.6170720  31.6752599  41.5442094   3.0849280  23.7472599
  42.3692094   3.5169280  23.5242599  41.0612094   3.7359280  24.2552599
  43.2732094  -6.7060720  22.0572599  42.6542094  -6.1870720  21.5442599
  43.1832094  -6.3720720  22.9502599  45.6892094 -17.4260720  19.2262599
  46.0502094 -17.1100720  18.3982599  46.1682094 -18.2360720  19.4032599
  43.0852094   4.6089280  26.3982599  42.1642094   4.8369280  26.2732599
  43.4432094   4.5629280  25.5122599  41.3592094 -13.5240720  17.1722599
  40.7872094 -13.2330720  17.8822599  41.5102094 -12.7380720  16.6472599
  40.7342094   7.6309280  25.0022599  40.6402094   7.1669280  24.1702599
  41.2652094   8.3989280  24.7902599  44.8332094  -5.9750720  11.1752599
  45.3252094  -6.6580720  11.6302599  45.3372094  -5.1750720  11.3252599
  42.9292094 -10.0140720  22.9002599  42.6972094  -9.7950720  23.8032599
  43.7722094  -9.5840720  22.7592599  38.3872094  -3.7520720  40.0632599
  39.0922094  -3.4660720  40.6432599  38.8342094  -4.1940720  39.3422599
  39.6632094  -8.1310720  22.1312599  40.1542094  -8.2460720  22.9452599
  39.5802094  -7.1820720  22.0342599  41.2682094 -10.5920720  20.8052599
  40.5452094  -9.9810720  20.9422599  41.8742094 -10.4120720  21.5252599
  39.6572094 -19.2950720  20.1002599  39.1082094 -18.5570720  19.8332599
  39.0692094 -20.0500720  20.0812599  45.2322094  -3.2800720  27.8842599
  45.0002094  -3.9870720  28.4862599  45.4292094  -3.7230720  27.0592599
  45.2072094 -20.5130720  24.6772599  45.3742094 -19.7600720  24.1102599
  45.7722094 -20.3700720  25.4382599  41.0432094   6.7029280  16.7242599
  40.7202094   7.5579280  16.4392599  41.9272094   6.8749280  17.0462599
  39.3102094   0.5669280  28.4742599  40.0292094   0.2449280  27.9322599
  39.4942094   1.4989280  28.5892599  42.9902094  -5.4860720  14.9262599
  43.7822094  -5.9220720  14.6122599  42.8052094  -5.9030720  15.7682599
  43.9222094 -11.1550720  27.5262599  44.8582094 -11.3520720  27.4882599
  43.5182094 -11.9660720  27.8352599  45.3182094  -4.2420720  20.2982599
  45.2992094  -3.3240720  20.0252599  45.1842094  -4.2130720  21.2452599
  44.9152094  -8.3120720  37.3822599  44.6872094  -8.8290720  38.1552599
  45.6132094  -7.7290720  37.6792599  41.6192094 -21.5940720  19.7662599
  42.1412094 -21.2350720  20.4832599  40.8952094 -20.9760720  19.6632599
  40.3852094  -6.2770720  18.6092599  39.7872094  -6.1500720  17.8732599
  39.9132094  -6.8570720  19.2052599  43.5382094  -9.0340720  31.4162599
  42.9512094  -8.9280720  30.6672599  43.9952094  -8.1960720  31.4832599
  39.3812094 -19.1310720  25.6342599  39.1732094 -19.5490720  24.7982599
  39.9462094 -18.3940720  25.3992599  42.4762094  -4.9670720  11.8582599
  43.3852094  -5.1630720  12.0872599  42.2822094  -5.5530720  11.1272599
  43.1482094 -20.2680720  21.4532599  43.8962094 -19.6730720  21.4972599
  42.3892094 -19.7140720  21.6372599  43.2692094  -9.8080720  13.7402599
  42.4492094  -9.3150720  13.7032599  43.9072094  -9.1860720  14.0892599
  43.5692094 -17.6860720  16.8922599  44.0112094 -17.4030720  17.6922599
  43.9642094 -17.1560720  16.1992599  43.6192094 -12.3230720  20.2822599
  42.8412094 -11.7680720  20.2252599  43.3802094 -13.1210720  19.8102599
  43.0822094  -2.2150720  21.1112599  42.4192094  -1.9700720  21.7562599
  42.6102094  -2.7510720  20.4742599  45.1892094  -7.7630720  14.9012599
  45.8712094  -7.1490720  14.6302599  45.1132094  -7.6360720  15.8472599
  45.7792094  -1.5560720  22.2712599  44.8792094  -1.8810720  22.2362599
  45.6882094  -0.6090720  22.3792599  41.2252094   5.6919280  20.5672599
  42.1602094   5.4839280  20.5692599  41.1872094   6.6229280  20.3492599
  45.0112094 -11.8590720  12.5162599  45.8862094 -12.1690720  12.7482599
  44.5572094 -11.7700720  13.3542599  42.5632094 -15.7130720  15.1542599
  43.1252094 -14.9710720  14.9312599  42.3142094 -15.5600720  16.0662599
  40.2302094  -8.6910720  36.2232599  40.7222094  -8.8390720  35.4162599
  39.9192094  -9.5600720  36.4782599  42.8612094   2.0559280  10.6962599
  43.2822094   2.3049280  11.5192599  43.5712094   1.7009280  10.1622599
  40.2152094  -3.2960720  12.0472599  40.3442094  -2.3480720  12.0762599
  41.0602094  -3.6450720  11.7662599  42.8512094 -13.3890720  28.8662599
  43.4502094 -13.6850720  29.5522599  42.3762094 -14.1780720  28.6062599
  43.0982094 -15.3000720  33.7902599  43.0512094 -16.2560720  33.7752599
  42.4452094 -15.0170720  33.1512599  40.7422094  -8.7820720  13.8892599
  39.9092094  -9.1500720  14.1862599  40.6492094  -7.8390720  14.0252599
  40.6602094 -11.9610720  37.7612599  40.8962094 -12.8470720  37.4872599
  41.2852094 -11.7490720  38.4542599  42.8832094 -15.0030720  38.5792599
  43.4602094 -14.7800720  37.8492599  43.4172094 -14.8570720  39.3602599
  39.8232094 -12.3760720  23.2692599  39.3122094 -11.7550720  23.7872599
  39.1712094 -12.9570720  22.8792599  42.3442094 -10.0950720  25.7322599
  41.5802094 -10.5150720  26.1262599  43.0942094 -10.5410720  26.1272599
  41.5612094 -19.5290720  33.2062599  42.2322094 -18.9770720  33.6092599
  40.9412094 -18.9100720  32.8222599  44.9892094  -5.0200720  17.6782599
  44.8022094  -5.9500720  17.8032599  45.0202094  -4.6590720  18.5642599
  38.9622094 -20.9380720  39.5502599  39.7622094 -20.4920720  39.8282599
  38.2952094 -20.2510720  39.5422599  40.2262094   6.3919280  39.1842599
  40.4532094   6.1979280  38.2742599  40.0922094   7.3389280  39.2012599
  45.3462094 -10.1560720  40.1312599  46.2942094 -10.0260720  40.1392599
  45.1772094 -10.7420720  40.8692599  44.5982094 -13.3170720  33.1532599
  44.1912094 -14.1750720  33.2712599  44.0852094 -12.9010720  32.4602599
  43.1462094 -19.0780720  40.2662599  42.5902094 -19.1500720  41.0412599
  42.6622094 -19.5360720  39.5792599  45.3762094  -4.4110720  34.2042599
  46.2562094  -4.4960720  34.5702599  45.1622094  -3.4830720  34.3052599
  44.3982094 -13.5580720  16.0002599  43.8292094 -12.8060720  16.1652599
  45.1562094 -13.4150720  16.5662599  42.0822094  -2.7110720  17.1052599
  42.4792094  -1.8660720  17.3182599  42.5962094  -3.0380720  16.3672599
  38.0652094   7.5689280  11.8312599  38.3652094   8.0809280  11.0802599
  38.2252094   6.6589280  11.5812599  44.0962094 -16.9940720  26.0852599
  43.6142094 -16.4420720  25.4702599  43.4692094 -17.1790720  26.7842599
  38.8042094 -11.9030720  35.8202599  39.5132094 -12.0270720  36.4512599
  39.2402094 -11.5960720  35.0262599  42.3022094 -17.5580720  37.4872599
  41.3742094 -17.4230720  37.2962599  42.5362094 -16.8340720  38.0672599
  41.7552094  -8.8030720  33.9592599  41.7142094  -7.8570720  34.1012599
  42.0712094  -8.8960720  33.0602599  44.3982094  -9.7490720  35.0082599
  43.5572094  -9.4280720  34.6802599  44.7472094  -9.0230720  35.5242599
  37.3542094 -12.7560720  30.9852599  37.0702094 -13.5590720  31.4212599
  37.1682094 -12.0610720  31.6162599  40.7442094 -14.3730720  36.6582599
  41.5442094 -14.8920720  36.7422599  40.5982094 -14.3090720  35.7142599
  38.1782094  -7.3840720  40.2532599  38.7262094  -6.6200720  40.0712599
  38.1362094  -7.4270720  41.2082599  38.0622094 -18.1460720  34.5742599
  37.7432094 -19.0230720  34.3632599  38.8252094 -18.0250720  34.0082599
  45.1342094 -14.4670720  30.3502599  45.1112094 -15.4230720  30.3232599
  45.9742094 -14.2580720  30.7602599  38.3092094 -15.5100720  20.2552599
  37.8362094 -15.2430720  19.4672599  39.1082094 -14.9830720  20.2462599
  39.8622094  -2.7810720  21.5902599  40.3712094  -2.2340720  22.1882599
  40.2422094  -2.6110720  20.7282599  39.3552094 -16.8870720  22.7042599
  38.8792094 -16.5460720  21.9472599  39.0312094 -16.3730720  23.4432599
  42.1872094   7.9559280  28.8582599  42.3212094   8.1049280  29.7942599
  41.8022094   8.7719280  28.5382599  40.5142094   3.0409280  29.9822599
  41.3932094   2.6649280  29.9372599  40.6042094   3.9089280  29.5892599
  37.2252094  -0.0860720  15.3132599  38.1182094  -0.4090720  15.1972599
  36.6772094  -0.7270720  14.8592599  41.8652094   0.9259280  27.1992599
  42.4642094   1.6719280  27.2302599  42.3982094   0.1799280  27.4752599
  42.9852094  -0.1670720  17.3792599  43.6412094   0.2159280  17.9612599
  42.1692094  -0.1290720  17.8782599  39.4972094  -2.7770720  16.1382599
  38.8502094  -2.9380720  16.8262599  40.3422094  -2.9120720  16.5672599
  43.6832094  -2.6600720  12.9942599  43.0912094  -2.0450720  12.5612599
  43.1842094  -3.4750720  13.0492599  43.0392094   5.8239280  40.5532599
  42.4432094   5.9869280  39.8212599  42.5492094   5.2449280  41.1372599
  44.4522094   1.5249280  14.0062599  44.7602094   2.2879280  13.5182599
  44.8332094   1.6279280  14.8782599  41.4602094  -1.4170720  23.1832599
  41.0312094  -0.6080720  23.4602599  42.2212094  -1.4940720  23.7592599
  40.4342094  -6.0800720  13.8242599  40.8232094  -5.4220720  13.2482599
  40.9872094  -6.0720720  14.6052599  41.3662094  -3.7830720  19.5432599
  41.4182094  -3.4020720  18.6672599  40.7792094  -4.5320720  19.4452599
  43.8922094   3.3029280  17.6382599  44.5012094   2.8199280  17.0802599
  43.2392094   3.6549280  17.0332599  37.9682094  -3.7860720  13.6842599
  38.5622094  -3.7310720  14.4332599  38.4932094  -3.4950720  12.9392599
  44.1002094   4.4919280  23.6312599  43.9482094   5.4279280  23.7592599
  45.0482094   4.3899280  23.7152599  37.8022094  -6.8210720  13.0472599
  37.1732094  -6.1100720  13.1662599  38.6532094  -6.4210720  13.2242599
  44.8652094  -5.9270720  28.8412599  44.5682094  -5.9580720  29.7502599
  45.6422094  -6.4860720  28.8222599  41.5522094   0.9979280  21.5192599
  41.0132094   1.4479280  22.1702599  42.2432094   1.6249280  21.3052599
  40.4952094   0.7849280  24.7882599  40.8322094   1.5409280  24.3072599
  41.0052094   0.7679280  25.5982599  37.9692094  -4.8770720  26.5312599
  37.3652094  -5.3110720  27.1342599  37.4942094  -4.1020720  26.2322599
  43.9262094   2.6139280  20.5992599  44.0262094   3.5219280  20.8842599
  44.0562094   2.6439280  19.6512599  40.5182094  -2.1910720  28.8152599
  39.6292094  -1.9980720  29.1142599  41.0822094  -1.8870720  29.5252599
  40.2932094   0.3819280  18.7942599  40.6062094   1.1389280  19.2902599
  39.3392094   0.4589280  18.8152599  44.2492094  -0.1140720  19.8912599
  44.4502094   0.6479280  20.4352599  43.7362094  -0.6870720  20.4612599
  40.3612094 -20.9810720  15.1882599  41.3162094 -20.9140720  15.1822599
  40.0652094 -20.1560720  15.5722599  45.1812094  -0.2420720  25.2742599
  46.0792094  -0.2320720  25.6052599  45.1652094   0.4379280  24.6012599
  45.4282094  -1.8390720  35.8772599  45.2352094  -2.3790720  36.6442599
  46.3832094  -1.8400720  35.8172599  45.1532094   1.6369280  35.2142599
  45.8182094   1.1369280  34.7412599  45.1422094   2.4909280  34.7802599
  44.3872094 -19.3790720  30.4112599  44.9392094 -20.1450720  30.2542599
  43.6362094 -19.7200720  30.8982599  43.9562094   6.9089280  24.8472599
  44.5472094   7.6419280  25.0212599  43.1512094   7.1339280  25.3132599
  38.6412094   8.1469280  26.5072599  38.6202094   9.0979280  26.6182599
  39.4722094   7.9759280  26.0642599  44.0202094  -1.0220720  28.5042599
  44.6382094  -1.7190720  28.2852599  43.4622094  -1.4000720  29.1842599
  43.3202094   1.9419280  30.7142599  43.5142094   1.7249280  29.8022599
  44.1472094   2.2779280  31.0622599  38.8682094   6.8859280  18.1962599
  39.5372094   6.3769280  17.7402599  38.0832094   6.3399280  18.1582599
  40.5412094   3.1449280  19.6802599  40.9432094   3.9809280  19.9152599
  39.7052094   3.3849280  19.2792599  38.6002094   5.1909280  11.0102599
  39.3762094   5.5039280  10.5452599  38.4222094   4.3319280  10.6282599
  38.6992094  -2.5040720  24.2202599  38.0092094  -2.1190720  23.6802599
  39.1922094  -3.0610720  23.6172599  41.1322094   5.3029280  28.7602599
  40.9502094   5.2559280  27.8222599  41.6402094   6.1079280  28.8652599
  40.6282094 -15.3830720  12.5192599  41.1902094 -14.7160720  12.1242599
  41.1632094 -15.7650720  13.2152599  44.3822094   0.9109280  38.7272599
  43.7952094   0.8009280  37.9792599  45.2612094   0.8359280  38.3542599
  37.3242094 -18.0050720  16.4512599  37.1792094 -18.9190720  16.2092599
  37.2602094 -17.9970720  17.4062599  42.2422094 -20.5640720  38.2312599
  42.4242094 -19.7550720  37.7542599  42.1112094 -21.2210720  37.5472599
  41.9352094   4.8659280  12.6952599  42.0182094   4.1449280  13.3192599
  41.1152094   5.2969280  12.9332599  44.1822094  -5.5690720  31.3482599
  43.6082094  -5.8270720  32.0702599  44.1812094  -4.6120720  31.3722599
  42.7052094  -0.7000720  11.2482599  41.8002094  -0.6610720  10.9382599
  43.0562094   0.1729280  11.0742599  41.1072094   2.1689280  38.5182599
  40.9622094   1.2329280  38.3782599  41.7942094   2.2089280  39.1832599
  42.8142094   3.9679280  32.6812599  43.3222094   4.3629280  31.9722599
  42.4542094   3.1669280  32.3012599  40.7572094  -0.5910720  38.5452599
  39.8832094  -0.7040720  38.1722599  41.3512094  -0.9030720  37.8642599
  44.9882094  -3.9570720  37.5802599  45.1382094  -3.4710720  38.3912599
  45.8582094  -4.2510720  37.3112599  45.1992094   4.0489280  39.7232599
  44.5342094   4.4339280  40.2942599  44.7562094   3.9319280  38.8832599
  37.0852094   4.1279280  33.5692599  36.9722094   3.3319280  34.0882599
  38.0252094   4.1679280  33.3922599  42.6732094  -4.5360720  36.0732599
  42.5642094  -5.4430720  36.3612599  43.5312094  -4.2790720  36.4112599
  42.0562094   0.4419280  15.1072599  42.6712094   0.7729280  14.4522599
  42.5752094   0.3709280  15.9092599  38.3712094   2.3039280  12.8962599
  38.8912094   1.8079280  12.2642599  38.8092094   2.1579280  13.7342599
  38.4632094  -0.6430720  32.9402599  38.7132094  -1.3110720  32.3022599
  39.1492094   0.0209280  32.8742599  44.6002094   4.6379280  30.6712599
  44.6122094   5.0849280  29.8252599  45.4292094   4.8829280  31.0832599
  39.0972094   4.4789280  37.0522599  38.2172094   4.8169280  36.8902599
  38.9972094   3.9029280  37.8102599  44.0922094   8.0949280  35.0162599
  44.5922094   7.5609280  35.6332599  44.7242094   8.3359280  34.3392599
  45.4402094 -20.2970720  38.7572599  44.7832094 -20.1560720  39.4392599
  45.3762094 -21.2310720  38.5532599  44.4662094   4.8469280  36.9092599
  43.5412094   4.7209280  36.6962599  44.9072094   4.8619280  36.0602599
  44.3272094   5.9829280  28.2982599  44.0162094   5.7119280  27.4342599
  43.7282094   6.6819280  28.5602599  45.2202094   7.6039280  21.1512599
  45.7992094   7.2819280  21.8412599  44.6982094   8.2849280  21.5752599
  45.6102094   7.0229280  38.4112599  45.2842094   6.4389280  37.7262599
  45.2082094   6.6959280  39.2162599  42.6892094 -21.3880720  31.5112599
  42.3392094 -20.7610720  32.1442599  42.5512094 -22.2430720  31.9202599
  37.2482094 -14.8360720  28.1972599  37.9662094 -14.2320720  28.3862599
  36.9052094 -14.5430720  27.3532599  37.6502094   1.3269280  23.8722599
  37.4002094   0.4189280  23.7022599  38.5472094   1.2719280  24.2012599
  42.8032094 -17.6480720  28.5762599  43.3172094 -18.1490720  29.2082599
  42.2972094 -18.3080720  28.1012599  42.6182094 -12.6390720  23.9602599
  41.7322094 -12.7200720  24.3122599  42.5942094 -11.8410720  23.4312599
  38.4302094   3.8179280  21.7032599  39.0712094   3.2349280  21.2962599
  37.6282094   3.2979280  21.7512599  37.7462094 -18.1270720  12.7202599
  38.0912094 -17.6220720  11.9842599  36.8072094 -18.1940720  12.5462599
  38.8832094  -7.0010720  16.2682599  38.2612094  -7.0510720  15.5412599
  38.9492094  -7.9000720  16.5892599  37.3612094  -9.7310720  22.2202599
  37.6282094  -9.9590720  23.1102599  38.0872094  -9.2110720  21.8772599
  41.9802094   4.2489280  15.8622599  41.5402094   5.0729280  16.0742599
  41.2672094   3.6309280  15.7022599  37.2182094 -15.2290720  17.9032599
  36.6402094 -15.6700720  17.2792599  37.8962094 -14.8270720  17.3592599
  42.5982094 -19.9250720  24.7152599  43.5402094 -20.0180720  24.5682599
  42.3072094 -19.3190720  24.0342599  45.7372094 -17.1650720  30.0422599
  46.3442094 -17.4680720  30.7182599  45.0022094 -17.7770720  30.0892599
  41.3722094  -2.3030720  26.1762599  40.4622094  -2.1050720  25.9552599
  41.4242094  -2.1710720  27.1222599  39.8832094 -17.4740720  32.4852599
  39.4932094 -17.9770720  31.7702599  40.1872094 -16.6660720  32.0702599
  39.8242094 -12.6370720  19.2482599  40.2472094 -12.4350720  20.0832599
  38.9582094 -12.2360720  19.3152599  39.1542094 -13.3120720  29.0412599
  40.0052094 -12.9080720  29.2092599  38.5962094 -13.0020720  29.7542599
  43.2532094 -18.0590720  13.9492599  42.9002094 -17.1950720  14.1632599
  42.5632094 -18.4780720  13.4342599  43.0742094 -11.2830720  15.9782599
  42.8232094 -10.7270720  16.7162599  43.0602094 -10.6980720  15.2212599
  41.2862094  -4.3300720  31.5182599  40.7452094  -3.9340720  30.8352599
  41.9722094  -3.6830720  31.6862599  38.4422094 -14.7530720  24.7772599
  37.5542094 -14.8260720  25.1242599  38.7352094 -13.8830720  25.0472599
  38.3912094  -3.2320720  18.7732599  38.9742094  -3.1040720  19.5222599
  37.6012094  -3.6220720  19.1472599  42.3562094  -7.0450720  26.9922599
  43.0282094  -7.1270720  27.6682599  41.6072094  -6.6560720  27.4432599
  41.5932094 -10.6940720  11.6622599  40.8872094 -10.1210720  11.9612599
  42.3112094 -10.5300720  12.2742599  45.7012094  -2.6390720  15.3082599
  45.6322094  -3.5690720  15.5242599  45.0612094  -2.5070720  14.6092599
  38.1022094  -9.3660720  14.1272599  37.9542094  -8.7040720  13.4522599
  37.4322094 -10.0300720  13.9632599  38.1662094  -9.7800720  17.0802599
  37.9932094  -9.9950720  16.1632599  38.0252094 -10.6020720  17.5502599
  39.7902094  -5.1790720  38.2192599  39.5562094  -5.5220720  37.3572599
  40.7222094  -5.3790720  38.3122599  38.1632094  -7.6410720  37.4102599
  38.4652094  -7.5540720  38.3142599  38.9312094  -7.9490720  36.9292599
  37.8702094 -17.0830720  37.1942599  38.0092094 -17.2290720  36.2592599
  38.0642094 -16.1550720  37.3242599  40.1042094 -11.3080720  33.5342599
  39.5132094 -10.7400720  33.0392599  40.6872094 -10.7040720  33.9942599
  39.8362094 -14.4920720  33.9442599  40.1032094 -13.6800720  33.5122599
  39.2912094 -14.9400720  33.2962599  40.4222094  -2.8660720  35.4052599
  39.7972094  -3.5900720  35.4292599  41.2702094  -3.2730720  35.5822599
  42.3702094  -6.3190720  39.3452599  42.4372094  -6.9180720  38.6022599
  43.2782094  -6.1470720  39.5962599  38.9012094 -16.8160720  14.8412599
  38.5802094 -17.2330720  14.0412599  38.2732094 -17.0750720  15.5152599
  43.3492094  -0.0330720  35.9932599  43.8102094   0.7449280  35.6802599
  43.9882094  -0.7410720  35.9072599  39.7042094 -17.7730720  39.6082599
  39.5272094 -16.8340720  39.6512599  39.1922094 -18.0810720  38.8602599
  39.4412094  -5.6020720  35.3262599  38.6802094  -6.0950720  35.0212599
  40.1942094  -6.1120720  35.0272599  37.3082094 -14.3900720  35.6502599
  38.1882094 -14.2560720  35.2962599  36.8652094 -13.5520720  35.5152599
  42.4652094 -10.0080720  18.1622599  42.0322094 -10.6410720  18.7362599
  42.7622094  -9.3150720  18.7512599  43.2392094 -15.5250720  23.6042599
  43.9492094 -15.6380720  22.9722599  43.1672094 -14.5780720  23.7182599
  37.6962094 -11.7980720  24.5122599  37.0142094 -11.7830720  25.1842599
  37.4122094 -12.4750720  23.8972599  40.3242094  -5.6550720  28.0562599
  40.4752094  -4.8280720  28.5132599  39.5112094  -5.5160720  27.5702599
  37.0612094 -12.3360720  38.0642599  37.6272094 -12.0670720  37.3402599
  37.6402094 -12.8150720  38.6572599  41.1012094  -7.2480720  30.7102599
  40.5112094  -6.5180720  30.8952599  41.0572094  -7.3570720  29.7602599
  42.6482094  -7.2470720  36.7512599  42.0382094  -7.8820720  36.3742599
  43.4552094  -7.7420720  36.8882599  43.3632094 -17.9180720  34.4752599
  44.2192094 -18.1300720  34.8482599  42.8142094 -17.7190720  35.2332599
  37.8382094  -7.4400720  34.1392599  36.8992094  -7.6160720  34.1952599
  38.1682094  -8.0930720  33.5222599  39.2412094  -9.0590720  32.2862599
  39.9652094  -8.5150720  31.9772599  38.5062094  -8.8250720  31.7202599
  41.8262094 -13.3580720  10.9752599  41.7372094 -12.4220720  11.1542599
  42.7672094 -13.5240720  11.0302599  40.7662094 -16.2700720  25.3372599
  41.4742094 -15.8170720  24.8782599  40.0342094 -15.6530720  25.3182599
  39.6212094   7.8839280  31.9362599  38.9542094   7.1989280  31.9182599
  39.3312094   8.5189280  31.2812599  38.8972094 -17.0050720  27.9762599
  38.4552094 -17.4510720  27.2532599  38.2682094 -16.3470720  28.2722599
  40.9732094 -18.4250720  16.1552599  41.9272094 -18.3480720  16.1882599
  40.6902094 -17.6800720  15.6252599  38.2202094   4.0399280  24.5852599
  37.3962094   3.6759280  24.9072599  38.4182094   3.5279280  23.8012599
  39.1212094   8.1239280  29.2562599  39.4342094   7.2199280  29.2692599
  38.6982094   8.2189280  28.4022599  38.3432094  -3.1030720  30.6542599
  37.4582094  -2.7830720  30.4802599  38.2222094  -4.0180720  30.9092599
  39.2672094   6.7699280  14.1222599  38.8352094   7.2109280  13.3912599
  39.6542094   7.4799280  14.6352599  39.9232094   1.6779280  32.3182599
  40.0762094   2.0469280  31.4492599  39.7342094   2.4359280  32.8712599
  40.2402094   5.2039280  26.1862599  39.5992094   4.7299280  25.6572599
  40.3032094   6.0649280  25.7732599  38.3952094   2.8149280  39.5902599
  37.9392094   2.0249280  39.8792599  39.3062094   2.5409280  39.4822599
  38.0702094  -5.6710720  31.6102599  38.2072094  -5.9170720  32.5252599
  37.2302094  -6.0680720  31.3782599  44.3212094   2.0659280  28.1312599
  44.1472094   2.8779280  27.6572599  44.6702094   1.4699280  27.4682599
  42.0002094  -0.9590720  30.9482599  42.0862094  -0.0310720  31.1662599
  42.0742094  -1.4110720  31.7882599  40.0672094   5.8989280  22.8812599
  39.2112094   5.4739280  22.8292599  40.4552094   5.7659280  22.0172599
  37.3582094   4.3079280  14.2562599  37.7902094   3.7659280  13.5952599
  38.0312094   4.9289280  14.5342599  37.8102094   3.5209280  30.4402599
  38.7382094   3.3039280  30.5272599  37.7782094   4.1519280  29.7222599
  38.1082094   8.3949280  20.5622599  38.6062094   7.8339280  19.9662599
  37.2652094   8.5189280  20.1262599  37.3162094 -21.2850720  16.7582599
  37.3212094 -21.3570720  15.8032599  37.8612094 -22.0130720  17.0562599
  45.0332094 -16.9100720  39.4452599  45.4082094 -16.8250720  40.3212599
  44.5502094 -17.7360720  39.4692599  38.6712094  -1.0510720  36.7352599
  39.1782094  -1.6800720  36.2212599  38.0652094  -0.6600720  36.1052599
  40.0302094   4.1479280  33.7632599  40.9562094   3.9329280  33.6482599
  40.0352094   5.0039280  34.1922599  40.9832094 -18.9240720  12.1502599
  40.3462094 -18.4660720  11.6012599  40.4562094 -19.5100720  12.6922599
  40.3602094   8.1339280  34.4792599  40.0822094   7.9359280  33.5852599
  40.7962094   8.9839280  34.4132599  39.8912094  -0.4030720  11.1492599
  39.0502094   0.0549280  11.1582599  40.0772094  -0.5430720  10.2202599
  42.2262094  -1.3040720  33.9322599  42.6202094  -0.7580720  34.6122599
  41.4202094  -1.6360720  34.3282599  39.2512094 -19.1220720  30.2542599
  39.2232094 -18.4630720  29.5602599  38.5792094 -19.7580720  30.0092599
  38.0562094 -15.3470720  11.5192599  38.3852094 -14.8930720  10.7432599
  38.8002094 -15.3660720  12.1202599  41.7502094   4.2979280  36.5882599
  40.8152094   4.4639280  36.7052599  41.8882094   3.4269280  36.9622599
  44.1512094   5.7099280  44.7472599  43.4462094   5.1529280  45.0772599
  44.1762094   6.4489280  45.3552599  43.0662094 -14.5950720  49.3152599
  42.6012094 -15.3920720  49.0622599  43.0902094 -14.0680720  48.5162599
  37.8232094  -7.4910720  49.1502599  37.0002094  -7.1710720  48.7782599
  38.0962094  -8.1920720  48.5592599  39.5762094  -0.7940720  44.4602599
  40.3692094  -0.2580720  44.4612599  39.8602094  -1.6440720  44.7962599
  38.7762094 -13.6960720  45.7522599  39.1002094 -14.4840720  45.3172599
  39.5622094 -13.2700720  46.0952599  45.5412094 -15.1800720  44.1162599
  46.2052094 -14.6580720  43.6662599  45.1752094 -14.5870720  44.7732599
  44.9812094  -7.7940720  47.7062599  44.3462094  -8.0550720  48.3732599
  45.5522094  -8.5560720  47.6072599  42.1042094  -7.4840720  46.6682599
  42.4302094  -8.2830720  47.0832599  41.5832094  -7.0560720  47.3472599
  40.1872094   2.1569280  45.6072599  39.7472094   1.5669280  46.2192599
  40.9782094   1.6859280  45.3452599  44.5642094   7.2479280  42.2942599
  43.8682094   6.7229280  41.8992599  44.4742094   7.0959280  43.2352599
  43.1942094 -20.6840720  45.0772599  44.0432094 -21.0930720  44.9082599
  43.3482094 -19.7490720  44.9452599  45.8502094   1.5209280  46.3412599
  46.3512094   1.1389280  47.0622599  46.4922094   1.6459280  45.6422599
  41.6772094 -17.2490720  49.2252599  41.0062094 -17.8870720  49.4652599
  41.9392094 -17.4970720  48.3392599  43.3852094   7.2219280  48.0062599
  42.8102094   7.7579280  48.5512599  44.1262094   7.7929280  47.8032599
  45.6892094 -17.4260720  49.2262599  46.0502094 -17.1100720  48.3982599
  46.1682094 -18.2360720  49.4032599  41.3592094 -13.5240720  47.1722599
  40.7872094 -13.2330720  47.8822599  41.5102094 -12.7380720  46.6472599
  44.8332094  -5.9750720  41.1752599  45.3252094  -6.6580720  41.6302599
  45.3372094  -5.1750720  41.3252599  41.0432094   6.7029280  46.7242599
  40.7202094   7.5579280  46.4392599  41.9272094   6.8749280  47.0462599
  42.9902094  -5.4860720  44.9262599  43.7822094  -5.9220720  44.6122599
  42.8052094  -5.9030720  45.7682599  40.3852094  -6.2770720  48.6092599
  39.7872094  -6.1500720  47.8732599  39.9132094  -6.8570720  49.2052599
  42.4762094  -4.9670720  41.8582599  43.3852094  -5.1630720  42.0872599
  42.2822094  -5.5530720  41.1272599  43.2692094  -9.8080720  43.7402599
  42.4492094  -9.3150720  43.7032599  43.9072094  -9.1860720  44.0892599
  43.5692094 -17.6860720  46.8922599  44.0112094 -17.4030720  47.6922599
  43.9642094 -17.1560720  46.1992599  45.1892094  -7.7630720  44.9012599
  45.8712094  -7.1490720  44.6302599  45.1132094  -7.6360720  45.8472599
  45.0112094 -11.8590720  42.5162599  45.8862094 -12.1690720  42.7482599
  44.5572094 -11.7700720  43.3542599  42.5632094 -15.7130720  45.1542599
  43.1252094 -14.9710720  44.9312599  42.3142094 -15.5600720  46.0662599
  42.8612094   2.0559280  40.6962599  43.2822094   2.3049280  41.5192599
  43.5712094   1.7009280  40.1622599  40.2152094  -3.2960720  42.0472599
  40.3442094  -2.3480720  42.0762599  41.0602094  -3.6450720  41.7662599
  40.7422094  -8.7820720  43.8892599  39.9092094  -9.1500720  44.1862599
  40.6492094  -7.8390720  44.0252599  44.9892094  -5.0200720  47.6782599
  44.8022094  -5.9500720  47.8032599  45.0202094  -4.6590720  48.5642599
  44.3982094 -13.5580720  46.0002599  43.8292094 -12.8060720  46.1652599
  45.1562094 -13.4150720  46.5662599  42.0822094  -2.7110720  47.1052599
  42.4792094  -1.8660720  47.3182599  42.5962094  -3.0380720  46.3672599
  38.0652094   7.5689280  41.8312599  38.3652094   8.0809280  41.0802599
  38.2252094   6.6589280  41.5812599  37.2252094  -0.0860720  45.3132599
  38.1182094  -0.4090720  45.1972599  36.6772094  -0.7270720  44.8592599
  42.9852094  -0.1670720  47.3792599  43.6412094   0.2159280  47.9612599
  42.1692094  -0.1290720  47.8782599  39.4972094  -2.7770720  46.1382599
  38.8502094  -2.9380720  46.8262599  40.3422094  -2.9120720  46.5672599
  43.6832094  -2.6600720  42.9942599  43.0912094  -2.0450720  42.5612599
  43.1842094  -3.4750720  43.0492599  44.4522094   1.5249280  44.0062599
  44.7602094   2.2879280  43.5182599  44.8332094   1.6279280  44.8782599
  40.4342094  -6.0800720  43.8242599  40.8232094  -5.4220720  43.2482599
  40.9872094  -6.0720720  44.6052599  43.8922094   3.3029280  47.6382599
  44.5012094   2.8199280  47.0802599  43.2392094   3.6549280  47.0332599
  37.9682094  -3.7860720  43.6842599  38.5622094  -3.7310720  44.4332599
  38.4932094  -3.4950720  42.9392599  37.8022094  -6.8210720  43.0472599
  37.1732094  -6.1100720  43.1662599  38.6532094  -6.4210720  43.2242599
  38.8682094   6.8859280  48.1962599  39.5372094   6.3769280  47.7402599
  38.0832094   6.3399280  48.1582599  38.6002094   5.1909280  41.0102599
  39.3762094   5.5039280  40.5452599  38.4222094   4.3319280  40.6282599
  40.6282094 -15.3830720  42.5192599  41.1902094 -14.7160720  42.1242599
  41.1632094 -15.7650720  43.2152599  37.3242094 -18.0050720  46.4512599
  37.1792094 -18.9190720  46.2092599  37.2602094 -17.9970720  47.4062599
  41.9352094   4.8659280  42.6952599  42.0182094   4.1449280  43.3192599
  41.1152094   5.2969280  42.9332599  42.7052094  -0.7000720  41.2482599
  41.8002094  -0.6610720  40.9382599  43.0562094   0.1729280  41.0742599
  42.0562094   0.4419280  45.1072599  42.6712094   0.7729280  44.4522599
  42.5752094   0.3709280  45.9092599  38.3712094   2.3039280  42.8962599
  38.8912094   1.8079280  42.2642599  38.8092094   2.1579280  43.7342599
  37.7462094 -18.1270720  42.7202599  38.0912094 -17.6220720  41.9842599
  36.8072094 -18.1940720  42.5462599  38.8832094  -7.0010720  46.2682599
  38.2612094  -7.0510720  45.5412599  38.9492094  -7.9000720  46.5892599
  41.9802094   4.2489280  45.8622599  41.5402094   5.0729280  46.0742599
  41.2672094   3.6309280  45.7022599  37.2182094 -15.2290720  47.9032599
  36.6402094 -15.6700720  47.2792599  37.8962094 -14.8270720  47.3592599
  39.8242094 -12.6370720  49.2482599  40.2472094 -12.4350720  50.0832599
  38.9582094 -12.2360720  49.3152599  43.2532094 -18.0590720  43.9492599
  42.9002094 -17.1950720  44.1632599  42.5632094 -18.4780720  43.4342599
  43.0742094 -11.2830720  45.9782599  42.8232094 -10.7270720  46.7162599
  43.0602094 -10.6980720  45.2212599  38.3912094  -3.2320720  48.7732599
  38.9742094  -3.1040720  49.5222599  37.6012094  -3.6220720  49.1472599
  41.5932094 -10.6940720  41.6622599  40.8872094 -10.1210720  41.9612599
  42.3112094 -10.5300720  42.2742599  45.7012094  -2.6390720  45.3082599
  45.6322094  -3.5690720  45.5242599  45.0612094  -2.5070720  44.6092599
  38.1022094  -9.3660720  44.1272599  37.9542094  -8.7040720  43.4522599
  37.4322094 -10.0300720  43.9632599  38.1662094  -9.7800720  47.0802599
  37.9932094  -9.9950720  46.1632599  38.0252094 -10.6020720  47.5502599
  38.9012094 -16.8160720  44.8412599  38.5802094 -17.2330720  44.0412599
  38.2732094 -17.0750720  45.5152599  42.4652094 -10.0080720  48.1622599
  42.0322094 -10.6410720  48.7362599  42.7622094  -9.3150720  48.7512599
  41.8262094 -13.3580720  40.9752599  41.7372094 -12.4220720  41.1542599
  42.7672094 -13.5240720  41.0302599  40.9732094 -18.4250720  46.1552599
  41.9272094 -18.3480720  46.1882599  40.6902094 -17.6800720  45.6252599
  39.2672094   6.7699280  44.1222599  38.8352094   7.2109280  43.3912599
  39.6542094   7.4799280  44.6352599  37.3582094   4.3079280  44.2562599
  37.7902094   3.7659280  43.5952599  38.0312094   4.9289280  44.5342599
  37.3162094 -21.2850720  46.7582599  37.3212094 -21.3570720  45.8032599
  37.8612094 -22.0130720  47.0562599  37.7382094   1.4689280  49.0002599
  37.3732094   1.8739280  48.2142599  37.0442094   1.5469280  49.6552599
  40.9832094 -18.9240720  42.1502599  40.3462094 -18.4660720  41.6012599
  40.4562094 -19.5100720  42.6922599  39.8912094  -0.4030720  41.1492599
  39.0502094   0.0549280  41.1582599  40.0772094  -0.5430720  40.2202599
  38.0562094 -15.3470720  41.5192599  38.3852094 -14.8930720  40.7432599
  38.8002094 -15.3660720  42.1202599  41.3082094  22.1109280  -5.6247401
  41.2082094  22.8599280  -5.0377401  41.8532094  21.4939280  -5.1367401
  44.1512094  35.7099280 -15.2527401  43.4462094  35.1529280 -14.9227401
  44.1762094  36.4489280 -14.6447401  43.8982094  27.1459280   2.0842599
  43.5712094  27.8009280   2.7022599  44.8402094  27.3089280   2.0392599
  43.0662094  15.4049280 -10.6847401  42.6012094  14.6079280 -10.9377401
  43.0902094  15.9319280 -11.4837401  37.8232094  22.5089280 -10.8497401
  37.0002094  22.8289280 -11.2217401  38.0962094  21.8079280 -11.4407401
  42.8022094  22.1219280 -10.4357401  42.9522094  22.1529280  -9.4907401
  41.9412094  22.5219280 -10.5557401  39.7202094  15.5989280   9.4612599
  40.4612094  16.0109280   9.9072599  40.0502094  15.3959280   8.5862599
  39.5762094  29.2059280 -15.5397401  40.3692094  29.7419280 -15.5387401
  39.8602094  28.3559280 -15.2037401  41.6192094  37.2219280   6.8482599
  42.0852094  36.5449280   6.3572599  40.9712094  37.5629280   6.2312599
  38.7762094  16.3039280 -14.2477401  39.1002094  15.5159280 -14.6827401
  39.5622094  16.7299280 -13.9047401  41.5652094  10.1309280  -2.7477401
  40.6342094  10.2679280  -2.9217401  41.9552094  10.0069280  -3.6127401
  45.5412094  14.8199280 -15.8837401  46.2052094  15.3419280 -16.3337401
  45.1752094  15.4129280 -15.2267401  44.9812094  22.2059280 -12.2937401
  44.3462094  21.9449280 -11.6267401  45.5522094  21.4439280 -12.3927401
  44.8362094  25.7369280  -6.8837401  44.3202094  26.3299280  -6.3367401
  44.8012094  24.8969280  -6.4257401  44.3952094  16.6389280  10.4662599
  44.5472094  17.1779280  11.2422599  45.2522094  16.5769280  10.0452599
  41.8742094  12.0469280  -7.0387401  41.0212094  12.3859280  -7.3127401
  42.4182094  12.8269280  -6.9317401  42.1042094  22.5159280 -13.3317401
  42.4302094  21.7169280 -12.9167401  41.5832094  22.9439280 -12.6527401
  40.1872094  32.1569280 -14.3927401  39.7472094  31.5669280 -13.7807401
  40.9782094  31.6859280 -14.6547401  43.6462094  27.4829280  -5.1747401
  42.9842094  27.3919280  -4.4897401  44.2772094  28.1069280  -4.8167401
  44.5642094  37.2479280 -17.7057401  43.8682094  36.7229280 -18.1007401
  44.4742094  37.0959280 -16.7647401  43.1942094   9.3159280 -14.9227401
  44.0432094   8.9069280 -15.0917401  43.3482094  10.2509280 -15.0547401
  45.8502094  31.5209280 -13.6587401  46.3512094  31.1389280 -12.9377401
  46.4922094  31.6459280 -14.3577401  39.9512094  18.7569280  -3.4467401
  39.3852094  19.2289280  -4.0577401  39.3452094  18.3039280  -2.8597401
  40.9802094  14.3649280  -0.8397401  41.7232094  13.8299280  -1.1177401
  40.2292094  13.9899280  -1.3007401  44.4522094  13.9229280  -8.6157401
  43.8372094  14.5009280  -9.0677401  44.8282094  13.3819280  -9.3097401
  41.6772094  12.7509280 -10.7747401  41.0062094  12.1129280 -10.5347401
  41.9392094  12.5029280 -11.6607401  41.1832094  18.4679280  -0.1497401
  41.8932094  17.9249280  -0.4937401  41.3232094  19.3269280  -0.5487401
  43.3852094  37.2219280 -11.9937401  42.8102094  37.7579280 -11.4487401
  44.1262094  37.7929280 -12.1967401  44.5442094  23.3839280  -5.2797401
  43.9282094  23.0969280  -4.6057401  44.8992094  22.5709280  -5.6407401
  38.7632094  10.2729280  -7.0067401  38.8572094   9.8339280  -7.8517401
  38.9682094  11.1899280  -7.1877401  43.0652094  19.5699280   8.9672599
  43.8722094  19.6449280   9.4752599  42.3832094  19.4119280   9.6202599
  41.8942094  23.8559280   3.7422599  41.7512094  24.3359280   2.9262599
  42.1582094  24.5269280   4.3712599  40.1022094  24.8909280  -5.0227401
  40.7152094  25.5409280  -4.6807401  39.4322094  24.8109280  -4.3437401
  42.2532094  20.6339280  -1.2407401  43.0192094  20.1519280  -1.5527401
  41.8762094  21.0219280  -2.0307401  41.6572094  15.4269280   1.7092599
  41.5632094  15.1529280   0.7962599  41.6472094  16.3829280   1.6752599
  41.5442094  33.0849280  -6.2527401  42.3692094  33.5169280  -6.4757401
  41.0612094  33.7359280  -5.7447401  43.2732094  23.2939280  -7.9427401
  42.6542094  23.8129280  -8.4557401  43.1832094  23.6279280  -7.0497401
  45.6892094  12.5739280 -10.7737401  46.0502094  12.8899280 -11.6017401
  46.1682094  11.7639280 -10.5967401  43.0852094  34.6089280  -3.6017401
  42.1642094  34.8369280  -3.7267401  43.4432094  34.5629280  -4.4877401
  41.3592094  16.4759280 -12.8277401  40.7872094  16.7669280 -12.1177401
  41.5102094  17.2619280 -13.3527401  40.7342094  37.6309280  -4.9977401
  40.6402094  37.1669280  -5.8297401  41.2652094  38.3989280  -5.2097401
  44.8332094  24.0249280 -18.8247401  45.3252094  23.3419280 -18.3697401
  45.3372094  24.8249280 -18.6747401  42.9292094  19.9859280  -7.0997401
  42.6972094  20.2049280  -6.1967401  43.7722094  20.4159280  -7.2407401
  38.3872094  26.2479280  10.0632599  39.0922094  26.5339280  10.6432599
  38.8342094  25.8059280   9.3422599  39.6632094  21.8689280  -7.8687401
  40.1542094  21.7539280  -7.0547401  39.5802094  22.8179280  -7.9657401
  41.2682094  19.4079280  -9.1947401  40.5452094  20.0189280  -9.0577401
  41.8742094  19.5879280  -8.4747401  39.6572094  10.7049280  -9.8997401
  39.1082094  11.4429280 -10.1667401  39.0692094   9.9499280  -9.9187401
  40.2072094  24.5259280  -7.7897401  40.1622094  24.5959280  -6.8357401
  40.2962094  25.4299280  -8.0927401  45.2322094  26.7199280  -2.1157401
  45.0002094  26.0129280  -1.5137401  45.4292094  26.2769280  -2.9407401
  45.2072094   9.4869280  -5.3227401  45.3742094  10.2399280  -5.8897401
  45.7722094   9.6299280  -4.5617401  41.0432094  36.7029280 -13.2757401
  40.7202094  37.5579280 -13.5607401  41.9272094  36.8749280 -12.9537401
  39.3102094  30.5669280  -1.5257401  40.0292094  30.2449280  -2.0677401
  39.4942094  31.4989280  -1.4107401  42.9902094  24.5139280 -15.0737401
  43.7822094  24.0779280 -15.3877401  42.8052094  24.0969280 -14.2317401
  43.9222094  18.8449280  -2.4737401  44.8582094  18.6479280  -2.5117401
  43.5182094  18.0339280  -2.1647401  45.3182094  25.7579280  -9.7017401
  45.2992094  26.6759280  -9.9747401  45.1842094  25.7869280  -8.7547401
  44.9152094  21.6879280   7.3822599  44.6872094  21.1709280   8.1552599
  45.6132094  22.2709280   7.6792599  41.6192094   8.4059280 -10.2337401
  42.1412094   8.7649280  -9.5167401  40.8952094   9.0239280 -10.3367401
  40.3852094  23.7229280 -11.3907401  39.7872094  23.8499280 -12.1267401
  39.9132094  23.1429280 -10.7947401  43.5382094  20.9659280   1.4162599
  42.9512094  21.0719280   0.6672599  43.9952094  21.8039280   1.4832599
  39.3812094  10.8689280  -4.3657401  39.1732094  10.4509280  -5.2017401
  39.9462094  11.6059280  -4.6007401  42.4762094  25.0329280 -18.1417401
  43.3852094  24.8369280 -17.9127401  42.2822094  24.4469280 -18.8727401
  43.1482094   9.7319280  -8.5467401  43.8962094  10.3269280  -8.5027401
  42.3892094  10.2859280  -8.3627401  43.2692094  20.1919280 -16.2597401
  42.4492094  20.6849280 -16.2967401  43.9072094  20.8139280 -15.9107401
  43.5692094  12.3139280 -13.1077401  44.0112094  12.5969280 -12.3077401
  43.9642094  12.8439280 -13.8007401  43.6192094  17.6769280  -9.7177401
  42.8412094  18.2319280  -9.7747401  43.3802094  16.8789280 -10.1897401
  43.0822094  27.7849280  -8.8887401  42.4192094  28.0299280  -8.2437401
  42.6102094  27.2489280  -9.5257401  45.1892094  22.2369280 -15.0987401
  45.8712094  22.8509280 -15.3697401  45.1132094  22.3639280 -14.1527401
  45.7792094  28.4439280  -7.7287401  44.8792094  28.1189280  -7.7637401
  45.6882094  29.3909280  -7.6207401  41.2252094  35.6919280  -9.4327401
  42.1602094  35.4839280  -9.4307401  41.1872094  36.6229280  -9.6507401
  45.0112094  18.1409280 -17.4837401  45.8862094  17.8309280 -17.2517401
  44.5572094  18.2299280 -16.6457401  42.5792094  18.2729280   2.1582599
  41.6752094  18.5199280   2.3522599  43.0692094  19.0929280   2.2132599
  42.5632094  14.2869280 -14.8457401  43.1252094  15.0289280 -15.0687401
  42.3142094  14.4399280 -13.9337401  40.2302094  21.3089280   6.2232599
  40.7222094  21.1609280   5.4162599  39.9192094  20.4399280   6.4782599
  42.8612094  32.0559280 -19.3037401  43.2822094  32.3049280 -18.4807401
  43.5712094  31.7009280 -19.8377401  40.2152094  26.7039280 -17.9527401
  40.3442094  27.6519280 -17.9237401  41.0602094  26.3549280 -18.2337401
  42.8512094  16.6109280  -1.1337401  43.4502094  16.3149280  -0.4477401
  42.3762094  15.8219280  -1.3937401  43.0982094  14.6999280   3.7902599
  43.0512094  13.7439280   3.7752599  42.4452094  14.9829280   3.1512599
  40.7422094  21.2179280 -16.1107401  39.9092094  20.8499280 -15.8137401
  40.6492094  22.1609280 -15.9747401  40.6602094  18.0389280   7.7612599
  40.8962094  17.1529280   7.4872599  41.2852094  18.2509280   8.4542599
  42.8832094  14.9969280   8.5792599  43.4602094  15.2199280   7.8492599
  43.4172094  15.1429280   9.3602599  39.8232094  17.6239280  -6.7307401
  39.3122094  18.2449280  -6.2127401  39.1712094  17.0429280  -7.1207401
  42.3442094  19.9049280  -4.2677401  41.5802094  19.4849280  -3.8737401
  43.0942094  19.4589280  -3.8727401  41.5612094  10.4709280   3.2062599
  42.2322094  11.0229280   3.6092599  40.9412094  11.0899280   2.8222599
  44.9892094  24.9799280 -12.3217401  44.8022094  24.0499280 -12.1967401
  45.0202094  25.3409280 -11.4357401  38.9622094   9.0619280   9.5502599
  39.7622094   9.5079280   9.8282599  38.2952094   9.7489280   9.5422599
  40.2262094  36.3919280   9.1842599  40.4532094  36.1979280   8.2742599
  40.0922094  37.3389280   9.2012599  44.5982094  16.6829280   3.1532599
  44.1912094  15.8249280   3.2712599  44.0852094  17.0989280   2.4602599
  43.1462094  10.9219280  10.2662599  42.5902094  10.8499280  11.0412599
  42.6622094  10.4639280   9.5792599  45.3762094  25.5889280   4.2042599
  46.2562094  25.5039280   4.5702599  45.1622094  26.5169280   4.3052599
  44.3982094  16.4419280 -13.9997401  43.8292094  17.1939280 -13.8347401
  45.1562094  16.5849280 -13.4337401  42.0822094  27.2889280 -12.8947401
  42.4792094  28.1339280 -12.6817401  42.5962094  26.9619280 -13.6327401
  38.0652094  37.5689280 -18.1687401  38.3652094  38.0809280 -18.9197401
  38.2252094  36.6589280 -18.4187401  44.0962094  13.0059280  -3.9147401
  43.6142094  13.5579280  -4.5297401  43.4692094  12.8209280  -3.2157401
  38.8042094  18.0969280   5.8202599  39.5132094  17.9729280   6.4512599
  39.2402094  18.4039280   5.0262599  42.3022094  12.4419280   7.4872599
  41.3742094  12.5769280   7.2962599  42.5362094  13.1659280   8.0672599
  41.7552094  21.1969280   3.9592599  41.7142094  22.1429280   4.1012599
  42.0712094  21.1039280   3.0602599  44.3982094  20.2509280   5.0082599
  43.5572094  20.5719280   4.6802599  44.7472094  20.9769280   5.5242599
  37.3542094  17.2439280   0.9852599  37.0702094  16.4409280   1.4212599
  37.1682094  17.9389280   1.6162599  40.7442094  15.6269280   6.6582599
  41.5442094  15.1079280   6.7422599  40.5982094  15.6909280   5.7142599
  38.1782094  22.6159280  10.2532599  38.7262094  23.3799280  10.0712599
  38.1362094  22.5729280  11.2082599  38.0622094  11.8539280   4.5742599
  37.7432094  10.9769280   4.3632599  38.8252094  11.9749280   4.0082599
  45.1342094  15.5329280   0.3502599  45.1112094  14.5769280   0.3232599
  45.9742094  15.7419280   0.7602599  38.3092094  14.4899280  -9.7447401
  37.8362094  14.7569280 -10.5327401  39.1082094  15.0169280  -9.7537401
  39.8622094  27.2189280  -8.4097401  40.3712094  27.7659280  -7.8117401
  40.2422094  27.3889280  -9.2717401  39.3552094  13.1129280  -7.2957401
  38.8792094  13.4539280  -8.0527401  39.0312094  13.6269280  -6.5567401
  42.1872094  37.9559280  -1.1417401  42.3212094  38.1049280  -0.2057401
  41.8022094  38.7719280  -1.4617401  40.5142094  33.0409280  -0.0177401
  41.3932094  32.6649280  -0.0627401  40.6042094  33.9089280  -0.4107401
  37.2252094  29.9139280 -14.6867401  38.1182094  29.5909280 -14.8027401
  36.6772094  29.2729280 -15.1407401  41.8652094  30.9259280  -2.8007401
  42.4642094  31.6719280  -2.7697401  42.3982094  30.1799280  -2.5247401
  42.9852094  29.8329280 -12.6207401  43.6412094  30.2159280 -12.0387401
  42.1692094  29.8709280 -12.1217401  39.4972094  27.2229280 -13.8617401
  38.8502094  27.0619280 -13.1737401  40.3422094  27.0879280 -13.4327401
  43.6832094  27.3399280 -17.0057401  43.0912094  27.9549280 -17.4387401
  43.1842094  26.5249280 -16.9507401  43.0392094  35.8239280  10.5532599
  42.4432094  35.9869280   9.8212599  42.5492094  35.2449280  11.1372599
  44.4522094  31.5249280 -15.9937401  44.7602094  32.2879280 -16.4817401
  44.8332094  31.6279280 -15.1217401  41.4602094  28.5829280  -6.8167401
  41.0312094  29.3919280  -6.5397401  42.2212094  28.5059280  -6.2407401
  40.4342094  23.9199280 -16.1757401  40.8232094  24.5779280 -16.7517401
  40.9872094  23.9279280 -15.3947401  41.3662094  26.2169280 -10.4567401
  41.4182094  26.5979280 -11.3327401  40.7792094  25.4679280 -10.5547401
  43.8922094  33.3029280 -12.3617401  44.5012094  32.8199280 -12.9197401
  43.2392094  33.6549280 -12.9667401  37.9682094  26.2139280 -16.3157401
  38.5622094  26.2689280 -15.5667401  38.4932094  26.5049280 -17.0607401
  44.1002094  34.4919280  -6.3687401  43.9482094  35.4279280  -6.2407401
  45.0482094  34.3899280  -6.2847401  37.8022094  23.1789280 -16.9527401
  37.1732094  23.8899280 -16.8337401  38.6532094  23.5789280 -16.7757401
  44.8652094  24.0729280  -1.1587401  44.5682094  24.0419280  -0.2497401
  45.6422094  23.5139280  -1.1777401  41.5522094  30.9979280  -8.4807401
  41.0132094  31.4479280  -7.8297401  42.2432094  31.6249280  -8.6947401
  40.4952094  30.7849280  -5.2117401  40.8322094  31.5409280  -5.6927401
  41.0052094  30.7679280  -4.4017401  38.1792094   8.4309280   6.3512599
  38.9642094   8.5019280   5.8082599  38.4292094   8.8249280   7.1872599
  37.9692094  25.1229280  -3.4687401  37.3652094  24.6889280  -2.8657401
  37.4942094  25.8979280  -3.7677401  43.9262094  32.6139280  -9.4007401
  44.0262094  33.5219280  -9.1157401  44.0562094  32.6439280 -10.3487401
  40.5182094  27.8089280  -1.1847401  39.6292094  28.0019280  -0.8857401
  41.0822094  28.1129280  -0.4747401  40.2932094  30.3819280 -11.2057401
  40.6062094  31.1389280 -10.7097401  39.3392094  30.4589280 -11.1847401
  44.2492094  29.8859280 -10.1087401  44.4502094  30.6479280  -9.5647401
  43.7362094  29.3129280  -9.5387401  40.3612094   9.0189280 -14.8117401
  41.3162094   9.0859280 -14.8177401  40.0652094   9.8439280 -14.4277401
  45.1812094  29.7579280  -4.7257401  46.0792094  29.7679280  -4.3947401
  45.1652094  30.4379280  -5.3987401  45.4282094  28.1609280   5.8772599
  45.2352094  27.6209280   6.6442599  46.3832094  28.1599280   5.8172599
  45.1532094  31.6369280   5.2142599  45.8182094  31.1369280   4.7412599
  45.1422094  32.4909280   4.7802599  44.3872094  10.6209280   0.4112599
  44.9392094   9.8549280   0.2542599  43.6362094  10.2799280   0.8982599
  43.9562094  36.9089280  -5.1527401  44.5472094  37.6419280  -4.9787401
  43.1512094  37.1339280  -4.6867401  38.6412094  38.1469280  -3.4927401
  38.6202094  39.0979280  -3.3817401  39.4722094  37.9759280  -3.9357401
  44.0202094  28.9779280  -1.4957401  44.6382094  28.2809280  -1.7147401
  43.4622094  28.5999280  -0.8157401  43.3202094  31.9419280   0.7142599
  43.5142094  31.7249280  -0.1977401  44.1472094  32.2779280   1.0622599
  38.8682094  36.8859280 -11.8037401  39.5372094  36.3769280 -12.2597401
  38.0832094  36.3399280 -11.8417401  40.5412094  33.1449280 -10.3197401
  40.9432094  33.9809280 -10.0847401  39.7052094  33.3849280 -10.7207401
  38.6002094  35.1909280 -18.9897401  39.3762094  35.5039280 -19.4547401
  38.4222094  34.3319280 -19.3717401  38.6992094  27.4959280  -5.7797401
  38.0092094  27.8809280  -6.3197401  39.1922094  26.9389280  -6.3827401
  41.1322094  35.3029280  -1.2397401  40.9502094  35.2559280  -2.1777401
  41.6402094  36.1079280  -1.1347401  40.6282094  14.6169280 -17.4807401
  41.1902094  15.2839280 -17.8757401  41.1632094  14.2349280 -16.7847401
  44.3822094  30.9109280   8.7272599  43.7952094  30.8009280   7.9792599
  45.2612094  30.8359280   8.3542599  37.3242094  11.9949280 -13.5487401
  37.1792094  11.0809280 -13.7907401  37.2602094  12.0029280 -12.5937401
  42.2422094   9.4359280   8.2312599  42.4242094  10.2449280   7.7542599
  42.1112094   8.7789280   7.5472599  41.9352094  34.8659280 -17.3047401
  42.0182094  34.1449280 -16.6807401  41.1152094  35.2969280 -17.0667401
  44.1822094  24.4309280   1.3482599  43.6082094  24.1729280   2.0702599
  44.1812094  25.3879280   1.3722599  42.7052094  29.2999280 -18.7517401
  41.8002094  29.3389280 -19.0617401  43.0562094  30.1729280 -18.9257401
  41.1072094  32.1689280   8.5182599  40.9622094  31.2329280   8.3782599
  41.7942094  32.2089280   9.1832599  42.8142094  33.9679280   2.6812599
  43.3222094  34.3629280   1.9722599  42.4542094  33.1669280   2.3012599
  40.7572094  29.4089280   8.5452599  39.8832094  29.2959280   8.1722599
  41.3512094  29.0969280   7.8642599  44.9882094  26.0429280   7.5802599
  45.1382094  26.5289280   8.3912599  45.8582094  25.7489280   7.3112599
  45.1992094  34.0489280   9.7232599  44.5342094  34.4339280  10.2942599
  44.7562094  33.9319280   8.8832599  37.0852094  34.1279280   3.5692599
  36.9722094  33.3319280   4.0882599  38.0252094  34.1679280   3.3922599
  42.6732094  25.4639280   6.0732599  42.5642094  24.5569280   6.3612599
  43.5312094  25.7209280   6.4112599  42.0562094  30.4419280 -14.8927401
  42.6712094  30.7729280 -15.5477401  42.5752094  30.3709280 -14.0907401
  38.3712094  32.3039280 -17.1037401  38.8912094  31.8079280 -17.7357401
  38.8092094  32.1579280 -16.2657401  38.4632094  29.3569280   2.9402599
  38.7132094  28.6889280   2.3022599  39.1492094  30.0209280   2.8742599
  44.6002094  34.6379280   0.6712599  44.6122094  35.0849280  -0.1747401
  45.4292094  34.8829280   1.0832599  39.0972094  34.4789280   7.0522599
  38.2172094  34.8169280   6.8902599  38.9972094  33.9029280   7.8102599
  44.0922094  38.0949280   5.0162599  44.5922094  37.5609280   5.6332599
  44.7242094  38.3359280   4.3392599  45.4402094   9.7029280   8.7572599
  44.7832094   9.8439280   9.4392599  45.3762094   8.7689280   8.5532599
  44.4662094  34.8469280   6.9092599  43.5412094  34.7209280   6.6962599
  44.9072094  34.8619280   6.0602599  44.3272094  35.9829280  -1.7017401
  44.0162094  35.7119280  -2.5657401  43.7282094  36.6819280  -1.4397401
  45.6102094  37.0229280   8.4112599  45.2842094  36.4389280   7.7262599
  45.2082094  36.6959280   9.2162599  42.6892094   8.6119280   1.5112599
  42.3392094   9.2389280   2.1442599  42.5512094   7.7569280   1.9202599
  37.2482094  15.1639280  -1.8027401  37.9662094  15.7679280  -1.6137401
  36.9052094  15.4569280  -2.6467401  37.6502094  31.3269280  -6.1277401
  37.4002094  30.4189280  -6.2977401  38.5472094  31.2719280  -5.7987401
  42.8032094  12.3519280  -1.4237401  43.3172094  11.8509280  -0.7917401
  42.2972094  11.6919280  -1.8987401  42.6182094  17.3609280  -6.0397401
  41.7322094  17.2799280  -5.6877401  42.5942094  18.1589280  -6.5687401
  38.4302094  33.8179280  -8.2967401  39.0712094  33.2349280  -8.7037401
  37.6282094  33.2979280  -8.2487401  37.7462094  11.8729280 -17.2797401
  38.0912094  12.3779280 -18.0157401  36.8072094  11.8059280 -17.4537401
  38.8832094  22.9989280 -13.7317401  38.2612094  22.9489280 -14.4587401
  38.9492094  22.0999280 -13.4107401  37.3612094  20.2689280  -7.7797401
  37.6282094  20.0409280  -6.8897401  38.0872094  20.7889280  -8.1227401
  41.9802094  34.2489280 -14.1377401  41.5402094  35.0729280 -13.9257401
  41.2672094  33.6309280 -14.2977401  37.2182094  14.7709280 -12.0967401
  36.6402094  14.3299280 -12.7207401  37.8962094  15.1729280 -12.6407401
  42.5982094  10.0749280  -5.2847401  43.5402094   9.9819280  -5.4317401
  42.3072094  10.6809280  -5.9657401  45.7372094  12.8349280   0.0422599
  46.3442094  12.5319280   0.7182599  45.0022094  12.2229280   0.0892599
  41.3722094  27.6969280  -3.8237401  40.4622094  27.8949280  -4.0447401
  41.4242094  27.8289280  -2.8777401  39.8832094  12.5259280   2.4852599
  39.4932094  12.0229280   1.7702599  40.1872094  13.3339280   2.0702599
  39.8242094  17.3629280 -10.7517401  40.2472094  17.5649280  -9.9167401
  38.9582094  17.7639280 -10.6847401  39.1542094  16.6879280  -0.9587401
  40.0052094  17.0919280  -0.7907401  38.5962094  16.9979280  -0.2457401
  43.2532094  11.9409280 -16.0507401  42.9002094  12.8049280 -15.8367401
  42.5632094  11.5219280 -16.5657401  43.0742094  18.7169280 -14.0217401
  42.8232094  19.2729280 -13.2837401  43.0602094  19.3019280 -14.7787401
  41.2862094  25.6699280   1.5182599  40.7452094  26.0659280   0.8352599
  41.9722094  26.3169280   1.6862599  38.4422094  15.2469280  -5.2227401
  37.5542094  15.1739280  -4.8757401  38.7352094  16.1169280  -4.9527401
  38.3912094  26.7679280 -11.2267401  38.9742094  26.8959280 -10.4777401
  37.6012094  26.3779280 -10.8527401  42.3562094  22.9549280  -3.0077401
  43.0282094  22.8729280  -2.3317401  41.6072094  23.3439280  -2.5567401
  41.5932094  19.3059280 -18.3377401  40.8872094  19.8789280 -18.0387401
  42.3112094  19.4699280 -17.7257401  45.7012094  27.3609280 -14.6917401
  45.6322094  26.4309280 -14.4757401  45.0612094  27.4929280 -15.3907401
  38.1022094  20.6339280 -15.8727401  37.9542094  21.2959280 -16.5477401
  37.4322094  19.9699280 -16.0367401  38.1662094  20.2199280 -12.9197401
  37.9932094  20.0049280 -13.8367401  38.0252094  19.3979280 -12.4497401
  39.7902094  24.8209280   8.2192599  39.5562094  24.4779280   7.3572599
  40.7222094  24.6209280   8.3122599  38.1632094  22.3589280   7.4102599
  38.4652094  22.4459280   8.3142599  38.9312094  22.0509280   6.9292599
  37.8702094  12.9169280   7.1942599  38.0092094  12.7709280   6.2592599
  38.0642094  13.8449280   7.3242599  40.1042094  18.6919280   3.5342599
  39.5132094  19.2599280   3.0392599  40.6872094  19.2959280   3.9942599
  39.8362094  15.5079280   3.9442599  40.1032094  16.3199280   3.5122599
  39.2912094  15.0599280   3.2962599  40.4222094  27.1339280   5.4052599
  39.7972094  26.4099280   5.4292599  41.2702094  26.7269280   5.5822599
  42.3702094  23.6809280   9.3452599  42.4372094  23.0819280   8.6022599
  43.2782094  23.8529280   9.5962599  38.9012094  13.1839280 -15.1587401
  38.5802094  12.7669280 -15.9587401  38.2732094  12.9249280 -14.4847401
  43.3492094  29.9669280   5.9932599  43.8102094  30.7449280   5.6802599
  43.9882094  29.2589280   5.9072599  39.7042094  12.2269280   9.6082599
  39.5272094  13.1659280   9.6512599  39.1922094  11.9189280   8.8602599
  39.4412094  24.3979280   5.3262599  38.6802094  23.9049280   5.0212599
  40.1942094  23.8879280   5.0272599  37.3082094  15.6099280   5.6502599
  38.1882094  15.7439280   5.2962599  36.8652094  16.4479280   5.5152599
  42.4652094  19.9919280 -11.8377401  42.0322094  19.3589280 -11.2637401
  42.7622094  20.6849280 -11.2487401  43.2392094  14.4749280  -6.3957401
  43.9492094  14.3619280  -7.0277401  43.1672094  15.4219280  -6.2817401
  37.6962094  18.2019280  -5.4877401  37.0142094  18.2169280  -4.8157401
  37.4122094  17.5249280  -6.1027401  40.3242094  24.3449280  -1.9437401
  40.4752094  25.1719280  -1.4867401  39.5112094  24.4839280  -2.4297401
  37.0612094  17.6639280   8.0642599  37.6272094  17.9329280   7.3402599
  37.6402094  17.1849280   8.6572599  41.1012094  22.7519280   0.7102599
  40.5112094  23.4819280   0.8952599  41.0572094  22.6429280  -0.2397401
  42.6482094  22.7529280   6.7512599  42.0382094  22.1179280   6.3742599
  43.4552094  22.2579280   6.8882599  43.3632094  12.0819280   4.4752599
  44.2192094  11.8699280   4.8482599  42.8142094  12.2809280   5.2332599
  37.8382094  22.5599280   4.1392599  36.8992094  22.3839280   4.1952599
  38.1682094  21.9069280   3.5222599  39.2412094  20.9409280   2.2862599
  39.9652094  21.4849280   1.9772599  38.5062094  21.1749280   1.7202599
  41.8262094  16.6419280 -19.0247401  41.7372094  17.5779280 -18.8457401
  42.7672094  16.4759280 -18.9697401  40.7662094  13.7299280  -4.6627401
  41.4742094  14.1829280  -5.1217401  40.0342094  14.3469280  -4.6817401
  39.6212094  37.8839280   1.9362599  38.9542094  37.1989280   1.9182599
  39.3312094  38.5189280   1.2812599  38.8972094  12.9949280  -2.0237401
  38.4552094  12.5489280  -2.7467401  38.2682094  13.6529280  -1.7277401
  40.9732094  11.5749280 -13.8447401  41.9272094  11.6519280 -13.8117401
  40.6902094  12.3199280 -14.3747401  38.2202094  34.0399280  -5.4147401
  37.3962094  33.6759280  -5.0927401  38.4182094  33.5279280  -6.1987401
  39.1212094  38.1239280  -0.7437401  39.4342094  37.2199280  -0.7307401
  38.6982094  38.2189280  -1.5977401  38.3432094  26.8969280   0.6542599
  37.4582094  27.2169280   0.4802599  38.2222094  25.9819280   0.9092599
  39.2672094  36.7699280 -15.8777401  38.8352094  37.2109280 -16.6087401
  39.6542094  37.4799280 -15.3647401  39.9232094  31.6779280   2.3182599
  40.0762094  32.0469280   1.4492599  39.7342094  32.4359280   2.8712599
  40.2402094  35.2039280  -3.8137401  39.5992094  34.7299280  -4.3427401
  40.3032094  36.0649280  -4.2267401  38.3952094  32.8149280   9.5902599
  37.9392094  32.0249280   9.8792599  39.3062094  32.5409280   9.4822599
  38.0702094  24.3289280   1.6102599  38.2072094  24.0829280   2.5252599
  37.2302094  23.9319280   1.3782599  44.3212094  32.0659280  -1.8687401
  44.1472094  32.8779280  -2.3427401  44.6702094  31.4699280  -2.5317401
  42.0002094  29.0409280   0.9482599  42.0862094  29.9689280   1.1662599
  42.0742094  28.5889280   1.7882599  40.0672094  35.8989280  -7.1187401
  39.2112094  35.4739280  -7.1707401  40.4552094  35.7659280  -7.9827401
  37.3582094  34.3079280 -15.7437401  37.7902094  33.7659280 -16.4047401
  38.0312094  34.9289280 -15.4657401  37.8102094  33.5209280   0.4402599
  38.7382094  33.3039280   0.5272599  37.7782094  34.1519280  -0.2777401
  38.1082094  38.3949280  -9.4377401  38.6062094  37.8339280 -10.0337401
  37.2652094  38.5189280  -9.8737401  37.3162094   8.7149280 -13.2417401
  37.3212094   8.6429280 -14.1967401  37.8612094   7.9869280 -12.9437401
  45.0332094  13.0899280   9.4452599  45.4082094  13.1749280  10.3212599
  44.5502094  12.2639280   9.4692599  37.7382094  31.4689280 -10.9997401
  37.3732094  31.8739280 -11.7857401  37.0442094  31.5469280 -10.3447401
  38.6712094  28.9489280   6.7352599  39.1782094  28.3199280   6.2212599
  38.0652094  29.3399280   6.1052599  40.0302094  34.1479280   3.7632599
  40.9562094  33.9329280   3.6482599  40.0352094  35.0039280   4.1922599
  40.9832094  11.0759280 -17.8497401  40.3462094  11.5339280 -18.3987401
  40.4562094  10.4899280 -17.3077401  40.3602094  38.1339280   4.4792599
  40.0822094  37.9359280   3.5852599  40.7962094  38.9839280   4.4132599
  39.8912094  29.5969280 -18.8507401  39.0502094  30.0549280 -18.8417401
  40.0772094  29.4569280 -19.7797401  42.2262094  28.6959280   3.9322599
  42.6202094  29.2419280   4.6122599  41.4202094  28.3639280   4.3282599
  39.2512094  10.8779280   0.2542599  39.2232094  11.5369280  -0.4397401
  38.5792094  10.2419280   0.0092599  38.0562094  14.6529280 -18.4807401
  38.3852094  15.1069280 -19.2567401  38.8002094  14.6339280 -17.8797401
  41.7502094  34.2979280   6.5882599  40.8152094  34.4639280   6.7052599
  41.8882094  33.4269280   6.9622599  41.3082094  22.1109280  24.3752599
  41.2082094  22.8599280  24.9622599  41.8532094  21.4939280  24.8632599
  44.1512094  35.7099280  14.7472599  43.4462094  35.1529280  15.0772599
  44.1762094  36.4489280  15.3552599  43.8982094  27.1459280  32.0842599
  43.5712094  27.8009280  32.7022599  44.8402094  27.3089280  32.0392599
  43.0662094  15.4049280  19.3152599  42.6012094  14.6079280  19.0622599
  43.0902094  15.9319280  18.5162599  42.8022094  22.1219280  19.5642599
  42.9522094  22.1529280  20.5092599  41.9412094  22.5219280  19.4442599
  39.7202094  15.5989280  39.4612599  40.4612094  16.0109280  39.9072599
  40.0502094  15.3959280  38.5862599  39.5762094  29.2059280  14.4602599
  40.3692094  29.7419280  14.4612599  39.8602094  28.3559280  14.7962599
  41.6192094  37.2219280  36.8482599  42.0852094  36.5449280  36.3572599
  40.9712094  37.5629280  36.2312599  38.7762094  16.3039280  15.7522599
  39.1002094  15.5159280  15.3172599  39.5622094  16.7299280  16.0952599
  44.0622094  35.3619280  20.3722599  44.2792094  36.2449280  20.6702599
  44.2042094  35.3859280  19.4262599  45.5412094  14.8199280  14.1162599
  46.2052094  15.3419280  13.6662599  45.1752094  15.4129280  14.7732599
  44.9812094  22.2059280  17.7062599  44.3462094  21.9449280  18.3732599
  45.5522094  21.4439280  17.6072599  44.8362094  25.7369280  23.1162599
  44.3202094  26.3299280  23.6632599  44.8012094  24.8969280  23.5742599
  44.3952094  16.6389280  40.4662599  44.5472094  17.1779280  41.2422599
  45.2522094  16.5769280  40.0452599  41.8742094  12.0469280  22.9612599
  41.0212094  12.3859280  22.6872599  42.4182094  12.8269280  23.0682599
  42.1042094  22.5159280  16.6682599  42.4302094  21.7169280  17.0832599
  41.5832094  22.9439280  17.3472599  40.1872094  32.1569280  15.6072599
  39.7472094  31.5669280  16.2192599  40.9782094  31.6859280  15.3452599
  43.6462094  27.4829280  24.8252599  42.9842094  27.3919280  25.5102599
  44.2772094  28.1069280  25.1832599  44.5642094  37.2479280  12.2942599
  43.8682094  36.7229280  11.8992599  44.4742094  37.0959280  13.2352599
  43.1942094   9.3159280  15.0772599  44.0432094   8.9069280  14.9082599
  43.3482094  10.2509280  14.9452599  45.8502094  31.5209280  16.3412599
  46.3512094  31.1389280  17.0622599  46.4922094  31.6459280  15.6422599
  39.9512094  18.7569280  26.5532599  39.3852094  19.2289280  25.9422599
  39.3452094  18.3039280  27.1402599  40.9802094  14.3649280  29.1602599
  41.7232094  13.8299280  28.8822599  40.2292094  13.9899280  28.6992599
  44.4522094  13.9229280  21.3842599  43.8372094  14.5009280  20.9322599
  44.8282094  13.3819280  20.6902599  41.6772094  12.7509280  19.2252599
  41.0062094  12.1129280  19.4652599  41.9392094  12.5029280  18.3392599
  41.1832094  18.4679280  29.8502599  41.8932094  17.9249280  29.5062599
  41.3232094  19.3269280  29.4512599  43.3852094  37.2219280  18.0062599
  42.8102094  37.7579280  18.5512599  44.1262094  37.7929280  17.8032599
  44.5442094  23.3839280  24.7202599  43.9282094  23.0969280  25.3942599
  44.8992094  22.5709280  24.3592599  38.7632094  10.2729280  22.9932599
  38.8572094   9.8339280  22.1482599  38.9682094  11.1899280  22.8122599
  43.0652094  19.5699280  38.9672599  43.8722094  19.6449280  39.4752599
  42.3832094  19.4119280  39.6202599  41.8942094  23.8559280  33.7422599
  41.7512094  24.3359280  32.9262599  42.1582094  24.5269280  34.3712599
  40.1022094  24.8909280  24.9772599  40.7152094  25.5409280  25.3192599
  39.4322094  24.8109280  25.6562599  41.6572094  15.4269280  31.7092599
  41.5632094  15.1529280  30.7962599  41.6472094  16.3829280  31.6752599
  41.5442094  33.0849280  23.7472599  42.3692094  33.5169280  23.5242599
  41.0612094  33.7359280  24.2552599  43.2732094  23.2939280  22.0572599
  42.6542094  23.8129280  21.5442599  43.1832094  23.6279280  22.9502599
  45.6892094  12.5739280  19.2262599  46.0502094  12.8899280  18.3982599
  46.1682094  11.7639280  19.4032599  43.0852094  34.6089280  26.3982599
  42.1642094  34.8369280  26.2732599  43.4432094  34.5629280  25.5122599
  41.3592094  16.4759280  17.1722599  40.7872094  16.7669280  17.8822599
  41.5102094  17.2619280  16.6472599  40.7342094  37.6309280  25.0022599
  40.6402094  37.1669280  24.1702599  41.2652094  38.3989280  24.7902599
  44.8332094  24.0249280  11.1752599  45.3252094  23.3419280  11.6302599
  45.3372094  24.8249280  11.3252599  42.9292094  19.9859280  22.9002599
  42.6972094  20.2049280  23.8032599  43.7722094  20.4159280  22.7592599
  38.3872094  26.2479280  40.0632599  39.0922094  26.5339280  40.6432599
  38.8342094  25.8059280  39.3422599  41.2682094  19.4079280  20.8052599
  40.5452094  20.0189280  20.9422599  41.8742094  19.5879280  21.5252599
  39.6572094  10.7049280  20.1002599  39.1082094  11.4429280  19.8332599
  39.0692094   9.9499280  20.0812599  40.2072094  24.5259280  22.2102599
  40.1622094  24.5959280  23.1642599  40.2962094  25.4299280  21.9072599
  45.2322094  26.7199280  27.8842599  45.0002094  26.0129280  28.4862599
  45.4292094  26.2769280  27.0592599  45.2072094   9.4869280  24.6772599
  45.3742094  10.2399280  24.1102599  45.7722094   9.6299280  25.4382599
  41.0432094  36.7029280  16.7242599  40.7202094  37.5579280  16.4392599
  41.9272094  36.8749280  17.0462599  39.3102094  30.5669280  28.4742599
  40.0292094  30.2449280  27.9322599  39.4942094  31.4989280  28.5892599
  42.9902094  24.5139280  14.9262599  43.7822094  24.0779280  14.6122599
  42.8052094  24.0969280  15.7682599  43.9222094  18.8449280  27.5262599
  44.8582094  18.6479280  27.4882599  43.5182094  18.0339280  27.8352599
  45.3182094  25.7579280  20.2982599  45.2992094  26.6759280  20.0252599
  45.1842094  25.7869280  21.2452599  44.9152094  21.6879280  37.3822599
  44.6872094  21.1709280  38.1552599  45.6132094  22.2709280  37.6792599
  41.6192094   8.4059280  19.7662599  42.1412094   8.7649280  20.4832599
  40.8952094   9.0239280  19.6632599  40.3852094  23.7229280  18.6092599
  39.7872094  23.8499280  17.8732599  39.9132094  23.1429280  19.2052599
  43.5382094  20.9659280  31.4162599  42.9512094  21.0719280  30.6672599
  43.9952094  21.8039280  31.4832599  39.3812094  10.8689280  25.6342599
  39.1732094  10.4509280  24.7982599  39.9462094  11.6059280  25.3992599
  42.4762094  25.0329280  11.8582599  43.3852094  24.8369280  12.0872599
  42.2822094  24.4469280  11.1272599  43.1482094   9.7319280  21.4532599
  43.8962094  10.3269280  21.4972599  42.3892094  10.2859280  21.6372599
  43.2692094  20.1919280  13.7402599  42.4492094  20.6849280  13.7032599
  43.9072094  20.8139280  14.0892599  43.5692094  12.3139280  16.8922599
  44.0112094  12.5969280  17.6922599  43.9642094  12.8439280  16.1992599
  43.6192094  17.6769280  20.2822599  42.8412094  18.2319280  20.2252599
  43.3802094  16.8789280  19.8102599  43.0822094  27.7849280  21.1112599
  42.4192094  28.0299280  21.7562599  42.6102094  27.2489280  20.4742599
  45.1892094  22.2369280  14.9012599  45.8712094  22.8509280  14.6302599
  45.1132094  22.3639280  15.8472599  45.7792094  28.4439280  22.2712599
  44.8792094  28.1189280  22.2362599  45.6882094  29.3909280  22.3792599
  41.2252094  35.6919280  20.5672599  42.1602094  35.4839280  20.5692599
  41.1872094  36.6229280  20.3492599  45.0112094  18.1409280  12.5162599
  45.8862094  17.8309280  12.7482599  44.5572094  18.2299280  13.3542599
  42.5792094  18.2729280  32.1582599  41.6752094  18.5199280  32.3522599
  43.0692094  19.0929280  32.2132599  42.5632094  14.2869280  15.1542599
  43.1252094  15.0289280  14.9312599  42.3142094  14.4399280  16.0662599
  40.2302094  21.3089280  36.2232599  40.7222094  21.1609280  35.4162599
  39.9192094  20.4399280  36.4782599  42.8612094  32.0559280  10.6962599
  43.2822094  32.3049280  11.5192599  43.5712094  31.7009280  10.1622599
  40.2152094  26.7039280  12.0472599  40.3442094  27.6519280  12.0762599
  41.0602094  26.3549280  11.7662599  42.8512094  16.6109280  28.8662599
  43.4502094  16.3149280  29.5522599  42.3762094  15.8219280  28.6062599
  43.0982094  14.6999280  33.7902599  43.0512094  13.7439280  33.7752599
  42.4452094  14.9829280  33.1512599  40.7422094  21.2179280  13.8892599
  39.9092094  20.8499280  14.1862599  40.6492094  22.1609280  14.0252599
  40.6602094  18.0389280  37.7612599  40.8962094  17.1529280  37.4872599
  41.2852094  18.2509280  38.4542599  42.8832094  14.9969280  38.5792599
  43.4602094  15.2199280  37.8492599  43.4172094  15.1429280  39.3602599
  39.8232094  17.6239280  23.2692599  39.3122094  18.2449280  23.7872599
  39.1712094  17.0429280  22.8792599  42.3442094  19.9049280  25.7322599
  41.5802094  19.4849280  26.1262599  43.0942094  19.4589280  26.1272599
  41.5612094  10.4709280  33.2062599  42.2322094  11.0229280  33.6092599
  40.9412094  11.0899280  32.8222599  44.9892094  24.9799280  17.6782599
  44.8022094  24.0499280  17.8032599  45.0202094  25.3409280  18.5642599
  38.9622094   9.0619280  39.5502599  39.7622094   9.5079280  39.8282599
  38.2952094   9.7489280  39.5422599  40.2262094  36.3919280  39.1842599
  40.4532094  36.1979280  38.2742599  40.0922094  37.3389280  39.2012599
  45.3462094  19.8439280  40.1312599  46.2942094  19.9739280  40.1392599
  45.1772094  19.2579280  40.8692599  44.5982094  16.6829280  33.1532599
  44.1912094  15.8249280  33.2712599  44.0852094  17.0989280  32.4602599
  43.1462094  10.9219280  40.2662599  42.5902094  10.8499280  41.0412599
  42.6622094  10.4639280  39.5792599  45.3762094  25.5889280  34.2042599
  46.2562094  25.5039280  34.5702599  45.1622094  26.5169280  34.3052599
  44.3982094  16.4419280  16.0002599  43.8292094  17.1939280  16.1652599
  45.1562094  16.5849280  16.5662599  42.0822094  27.2889280  17.1052599
  42.4792094  28.1339280  17.3182599  42.5962094  26.9619280  16.3672599
  38.0652094  37.5689280  11.8312599  38.3652094  38.0809280  11.0802599
  38.2252094  36.6589280  11.5812599  44.0962094  13.0059280  26.0852599
  43.6142094  13.5579280  25.4702599  43.4692094  12.8209280  26.7842599
  38.8042094  18.0969280  35.8202599  39.5132094  17.9729280  36.4512599
  39.2402094  18.4039280  35.0262599  42.3022094  12.4419280  37.4872599
  41.3742094  12.5769280  37.2962599  42.5362094  13.1659280  38.0672599
  41.7552094  21.1969280  33.9592599  41.7142094  22.1429280  34.1012599
  42.0712094  21.1039280  33.0602599  44.3982094  20.2509280  35.0082599
  43.5572094  20.5719280  34.6802599  44.7472094  20.9769280  35.5242599
  37.3542094  17.2439280  30.9852599  37.0702094  16.4409280  31.4212599
  37.1682094  17.9389280  31.6162599  40.7442094  15.6269280  36.6582599
  41.5442094  15.1079280  36.7422599  40.5982094  15.6909280  35.7142599
  38.1782094  22.6159280  40.2532599  38.7262094  23.3799280  40.0712599
  38.1362094  22.5729280  41.2082599  38.0622094  11.8539280  34.5742599
  37.7432094  10.9769280  34.3632599  38.8252094  11.9749280  34.0082599
  45.1342094  15.5329280  30.3502599  45.1112094  14.5769280  30.3232599
  45.9742094  15.7419280  30.7602599  38.3092094  14.4899280  20.2552599
  37.8362094  14.7569280  19.4672599  39.1082094  15.0169280  20.2462599
  39.8622094  27.2189280  21.5902599  40.3712094  27.7659280  22.1882599
  40.2422094  27.3889280  20.7282599  39.3552094  13.1129280  22.7042599
  38.8792094  13.4539280  21.9472599  39.0312094  13.6269280  23.4432599
  42.1872094  37.9559280  28.8582599  42.3212094  38.1049280  29.7942599
  41.8022094  38.7719280  28.5382599  40.5142094  33.0409280  29.9822599
  41.3932094  32.6649280  29.9372599  40.6042094  33.9089280  29.5892599
  37.2252094  29.9139280  15.3132599  38.1182094  29.5909280  15.1972599
  36.6772094  29.2729280  14.8592599  41.8652094  30.9259280  27.1992599
  42.4642094  31.6719280  27.2302599  42.3982094  30.1799280  27.4752599
  42.9852094  29.8329280  17.3792599  43.6412094  30.2159280  17.9612599
  42.1692094  29.8709280  17.8782599  39.4972094  27.2229280  16.1382599
  38.8502094  27.0619280  16.8262599  40.3422094  27.0879280  16.5672599
  43.6832094  27.3399280  12.9942599  43.0912094  27.9549280  12.5612599
  43.1842094  26.5249280  13.0492599  43.0392094  35.8239280  40.5532599
  42.4432094  35.9869280  39.8212599  42.5492094  35.2449280  41.1372599
  44.4522094  31.5249280  14.0062599  44.7602094  32.2879280  13.5182599
  44.8332094  31.6279280  14.8782599  41.4602094  28.5829280  23.1832599
  41.0312094  29.3919280  23.4602599  42.2212094  28.5059280  23.7592599
  41.3662094  26.2169280  19.5432599  41.4182094  26.5979280  18.6672599
  40.7792094  25.4679280  19.4452599  43.8922094  33.3029280  17.6382599
  44.5012094  32.8199280  17.0802599  43.2392094  33.6549280  17.0332599
  44.1002094  34.4919280  23.6312599  43.9482094  35.4279280  23.7592599
  45.0482094  34.3899280  23.7152599  44.8652094  24.0729280  28.8412599
  44.5682094  24.0419280  29.7502599  45.6422094  23.5139280  28.8222599
  41.5522094  30.9979280  21.5192599  41.0132094  31.4479280  22.1702599
  42.2432094  31.6249280  21.3052599  40.4952094  30.7849280  24.7882599
  40.8322094  31.5409280  24.3072599  41.0052094  30.7679280  25.5982599
  38.1792094   8.4309280  36.3512599  38.9642094   8.5019280  35.8082599
  38.4292094   8.8249280  37.1872599  37.9692094  25.1229280  26.5312599
  37.3652094  24.6889280  27.1342599  37.4942094  25.8979280  26.2322599
  43.9262094  32.6139280  20.5992599  44.0262094  33.5219280  20.8842599
  44.0562094  32.6439280  19.6512599  40.5182094  27.8089280  28.8152599
  39.6292094  28.0019280  29.1142599  41.0822094  28.1129280  29.5252599
  40.2932094  30.3819280  18.7942599  40.6062094  31.1389280  19.2902599
  39.3392094  30.4589280  18.8152599  44.2492094  29.8859280  19.8912599
  44.4502094  30.6479280  20.4352599  43.7362094  29.3129280  20.4612599
  40.3612094   9.0189280  15.1882599  41.3162094   9.0859280  15.1822599
  40.0652094   9.8439280  15.5722599  45.1812094  29.7579280  25.2742599
  46.0792094  29.7679280  25.6052599  45.1652094  30.4379280  24.6012599
  45.4282094  28.1609280  35.8772599  45.2352094  27.6209280  36.6442599
  46.3832094  28.1599280  35.8172599  45.1532094  31.6369280  35.2142599
  45.8182094  31.1369280  34.7412599  45.1422094  32.4909280  34.7802599
  44.3872094  10.6209280  30.4112599  44.9392094   9.8549280  30.2542599
  43.6362094  10.2799280  30.8982599  43.9562094  36.9089280  24.8472599
  44.5472094  37.6419280  25.0212599  43.1512094  37.1339280  25.3132599
  38.6412094  38.1469280  26.5072599  38.6202094  39.0979280  26.6182599
  39.4722094  37.9759280  26.0642599  44.0202094  28.9779280  28.5042599
  44.6382094  28.2809280  28.2852599  43.4622094  28.5999280  29.1842599
  43.3202094  31.9419280  30.7142599  43.5142094  31.7249280  29.8022599
  44.1472094  32.2779280  31.0622599  38.8682094  36.8859280  18.1962599
  39.5372094  36.3769280  17.7402599  38.0832094  36.3399280  18.1582599
  40.5412094  33.1449280  19.6802599  40.9432094  33.9809280  19.9152599
  39.7052094  33.3849280  19.2792599  38.6002094  35.1909280  11.0102599
  39.3762094  35.5039280  10.5452599  38.4222094  34.3319280  10.6282599
  38.6992094  27.4959280  24.2202599  38.0092094  27.8809280  23.6802599
  39.1922094  26.9389280  23.6172599  41.1322094  35.3029280  28.7602599
  40.9502094  35.2559280  27.8222599  41.6402094  36.1079280  28.8652599
  40.6282094  14.6169280  12.5192599  41.1902094  15.2839280  12.1242599
  41.1632094  14.2349280  13.2152599  44.3822094  30.9109280  38.7272599
  43.7952094  30.8009280  37.9792599  45.2612094  30.8359280  38.3542599
  37.3242094  11.9949280  16.4512599  37.1792094  11.0809280  16.2092599
  37.2602094  12.0029280  17.4062599  42.2422094   9.4359280  38.2312599
  42.4242094  10.2449280  37.7542599  42.1112094   8.7789280  37.5472599
  41.9352094  34.8659280  12.6952599  42.0182094  34.1449280  13.3192599
  41.1152094  35.2969280  12.9332599  44.1822094  24.4309280  31.3482599
  43.6082094  24.1729280  32.0702599  44.1812094  25.3879280  31.3722599
  42.7052094  29.2999280  11.2482599  41.8002094  29.3389280  10.9382599
  43.0562094  30.1729280  11.0742599  41.1072094  32.1689280  38.5182599
  40.9622094  31.2329280  38.3782599  41.7942094  32.2089280  39.1832599
  42.8142094  33.9679280  32.6812599  43.3222094  34.3629280  31.9722599
  42.4542094  33.1669280  32.3012599  40.7572094  29.4089280  38.5452599
  39.8832094  29.2959280  38.1722599  41.3512094  29.0969280  37.8642599
  44.9882094  26.0429280  37.5802599  45.1382094  26.5289280  38.3912599
  45.8582094  25.7489280  37.3112599  45.1992094  34.0489280  39.7232599
  44.5342094  34.4339280  40.2942599  44.7562094  33.9319280  38.8832599
  37.0852094  34.1279280  33.5692599  36.9722094  33.3319280  34.0882599
  38.0252094  34.1679280  33.3922599  42.6732094  25.4639280  36.0732599
  42.5642094  24.5569280  36.3612599  43.5312094  25.7209280  36.4112599
  42.0562094  30.4419280  15.1072599  42.6712094  30.7729280  14.4522599
  42.5752094  30.3709280  15.9092599  38.3712094  32.3039280  12.8962599
  38.8912094  31.8079280  12.2642599  38.8092094  32.1579280  13.7342599
  38.4632094  29.3569280  32.9402599  38.7132094  28.6889280  32.3022599
  39.1492094  30.0209280  32.8742599  44.6002094  34.6379280  30.6712599
  44.6122094  35.0849280  29.8252599  45.4292094  34.8829280  31.0832599
  39.0972094  34.4789280  37.0522599  38.2172094  34.8169280  36.8902599
  38.9972094  33.9029280  37.8102599  44.0922094  38.0949280  35.0162599
  44.5922094  37.5609280  35.6332599  44.7242094  38.3359280  34.3392599
  45.4402094   9.7029280  38.7572599  44.7832094   9.8439280  39.4392599
  45.3762094   8.7689280  38.5532599  44.4662094  34.8469280  36.9092599
  43.5412094  34.7209280  36.6962599  44.9072094  34.8619280  36.0602599
  44.3272094  35.9829280  28.2982599  44.0162094  35.7119280  27.4342599
  43.7282094  36.6819280  28.5602599  45.2202094  37.6039280  21.1512599
  45.7992094  37.2819280  21.8412599  44.6982094  38.2849280  21.5752599
  45.6102094  37.0229280  38.4112599  45.2842094  36.4389280  37.7262599
  45.2082094  36.6959280  39.2162599  42.6892094   8.6119280  31.5112599
  42.3392094   9.2389280  32.1442599  42.5512094   7.7569280  31.9202599
  37.2482094  15.1639280  28.1972599  37.9662094  15.7679280  28.3862599
  36.9052094  15.4569280  27.3532599  37.6502094  31.3269280  23.8722599
  37.4002094  30.4189280  23.7022599  38.5472094  31.2719280  24.2012599
  42.8032094  12.3519280  28.5762599  43.3172094  11.8509280  29.2082599
  42.2972094  11.6919280  28.1012599  42.6182094  17.3609280  23.9602599
  41.7322094  17.2799280  24.3122599  42.5942094  18.1589280  23.4312599
  38.4302094  33.8179280  21.7032599  39.0712094  33.2349280  21.2962599
  37.6282094  33.2979280  21.7512599  37.7462094  11.8729280  12.7202599
  38.0912094  12.3779280  11.9842599  36.8072094  11.8059280  12.5462599
  41.9802094  34.2489280  15.8622599  41.5402094  35.0729280  16.0742599
  41.2672094  33.6309280  15.7022599  37.2182094  14.7709280  17.9032599
  36.6402094  14.3299280  17.2792599  37.8962094  15.1729280  17.3592599
  42.5982094  10.0749280  24.7152599  43.5402094   9.9819280  24.5682599
  42.3072094  10.6809280  24.0342599  45.7372094  12.8349280  30.0422599
  46.3442094  12.5319280  30.7182599  45.0022094  12.2229280  30.0892599
  41.3722094  27.6969280  26.1762599  40.4622094  27.8949280  25.9552599
  41.4242094  27.8289280  27.1222599  39.8832094  12.5259280  32.4852599
  39.4932094  12.0229280  31.7702599  40.1872094  13.3339280  32.0702599
  39.8242094  17.3629280  19.2482599  40.2472094  17.5649280  20.0832599
  38.9582094  17.7639280  19.3152599  39.1542094  16.6879280  29.0412599
  40.0052094  17.0919280  29.2092599  38.5962094  16.9979280  29.7542599
  43.2532094  11.9409280  13.9492599  42.9002094  12.8049280  14.1632599
  42.5632094  11.5219280  13.4342599  43.0742094  18.7169280  15.9782599
  42.8232094  19.2729280  16.7162599  43.0602094  19.3019280  15.2212599
  41.2862094  25.6699280  31.5182599  40.7452094  26.0659280  30.8352599
  41.9722094  26.3169280  31.6862599  38.4422094  15.2469280  24.7772599
  37.5542094  15.1739280  25.1242599  38.7352094  16.1169280  25.0472599
  38.3912094  26.7679280  18.7732599  38.9742094  26.8959280  19.5222599
  37.6012094  26.3779280  19.1472599  42.3562094  22.9549280  26.9922599
  43.0282094  22.8729280  27.6682599  41.6072094  23.3439280  27.4432599
  41.5932094  19.3059280  11.6622599  40.8872094  19.8789280  11.9612599
  42.3112094  19.4699280  12.2742599  45.7012094  27.3609280  15.3082599
  45.6322094  26.4309280  15.5242599  45.0612094  27.4929280  14.6092599
  38.1662094  20.2199280  17.0802599  37.9932094  20.0049280  16.1632599
  38.0252094  19.3979280  17.5502599  39.7902094  24.8209280  38.2192599
  39.5562094  24.4779280  37.3572599  40.7222094  24.6209280  38.3122599
  38.1632094  22.3589280  37.4102599  38.4652094  22.4459280  38.3142599
  38.9312094  22.0509280  36.9292599  37.8702094  12.9169280  37.1942599
  38.0092094  12.7709280  36.2592599  38.0642094  13.8449280  37.3242599
  40.1042094  18.6919280  33.5342599  39.5132094  19.2599280  33.0392599
  40.6872094  19.2959280  33.9942599  39.8362094  15.5079280  33.9442599
  40.1032094  16.3199280  33.5122599  39.2912094  15.0599280  33.2962599
  40.4222094  27.1339280  35.4052599  39.7972094  26.4099280  35.4292599
  41.2702094  26.7269280  35.5822599  42.3702094  23.6809280  39.3452599
  42.4372094  23.0819280  38.6022599  43.2782094  23.8529280  39.5962599
  38.9012094  13.1839280  14.8412599  38.5802094  12.7669280  14.0412599
  38.2732094  12.9249280  15.5152599  43.3492094  29.9669280  35.9932599
  43.8102094  30.7449280  35.6802599  43.9882094  29.2589280  35.9072599
  39.7042094  12.2269280  39.6082599  39.5272094  13.1659280  39.6512599
  39.1922094  11.9189280  38.8602599  39.4412094  24.3979280  35.3262599
  38.6802094  23.9049280  35.0212599  40.1942094  23.8879280  35.0272599
  37.3082094  15.6099280  35.6502599  38.1882094  15.7439280  35.2962599
  36.8652094  16.4479280  35.5152599  42.4652094  19.9919280  18.1622599
  42.0322094  19.3589280  18.7362599  42.7622094  20.6849280  18.7512599
  43.2392094  14.4749280  23.6042599  43.9492094  14.3619280  22.9722599
  43.1672094  15.4219280  23.7182599  37.6962094  18.2019280  24.5122599
  37.0142094  18.2169280  25.1842599  37.4122094  17.5249280  23.8972599
  40.3242094  24.3449280  28.0562599  40.4752094  25.1719280  28.5132599
  39.5112094  24.4839280  27.5702599  37.0612094  17.6639280  38.0642599
  37.6272094  17.9329280  37.3402599  37.6402094  17.1849280  38.6572599
  41.1012094  22.7519280  30.7102599  40.5112094  23.4819280  30.8952599
  41.0572094  22.6429280  29.7602599  42.6482094  22.7529280  36.7512599
  42.0382094  22.1179280  36.3742599  43.4552094  22.2579280  36.8882599
  43.3632094  12.0819280  34.4752599  44.2192094  11.8699280  34.8482599
  42.8142094  12.2809280  35.2332599  37.8382094  22.5599280  34.1392599
  36.8992094  22.3839280  34.1952599  38.1682094  21.9069280  33.5222599
  39.2412094  20.9409280  32.2862599  39.9652094  21.4849280  31.9772599
  38.5062094  21.1749280  31.7202599  41.8262094  16.6419280  10.9752599
  41.7372094  17.5779280  11.1542599  42.7672094  16.4759280  11.0302599
  40.7662094  13.7299280  25.3372599  41.4742094  14.1829280  24.8782599
  40.0342094  14.3469280  25.3182599  39.6212094  37.8839280  31.9362599
  38.9542094  37.1989280  31.9182599  39.3312094  38.5189280  31.2812599
  38.8972094  12.9949280  27.9762599  38.4552094  12.5489280  27.2532599
  38.2682094  13.6529280  28.2722599  40.9732094  11.5749280  16.1552599
  41.9272094  11.6519280  16.1882599  40.6902094  12.3199280  15.6252599
  38.2202094  34.0399280  24.5852599  37.3962094  33.6759280  24.9072599
  38.4182094  33.5279280  23.8012599  39.1212094  38.1239280  29.2562599
  39.4342094  37.2199280  29.2692599  38.6982094  38.2189280  28.4022599
  38.3432094  26.8969280  30.6542599  37.4582094  27.2169280  30.4802599
  38.2222094  25.9819280  30.9092599  39.2672094  36.7699280  14.1222599
  38.8352094  37.2109280  13.3912599  39.6542094  37.4799280  14.6352599
  39.9232094  31.6779280  32.3182599  40.0762094  32.0469280  31.4492599
  39.7342094  32.4359280  32.8712599  40.2402094  35.2039280  26.1862599
  39.5992094  34.7299280  25.6572599  40.3032094  36.0649280  25.7732599
  38.3952094  32.8149280  39.5902599  37.9392094  32.0249280  39.8792599
  39.3062094  32.5409280  39.4822599  38.0702094  24.3289280  31.6102599
  38.2072094  24.0829280  32.5252599  37.2302094  23.9319280  31.3782599
  44.3212094  32.0659280  28.1312599  44.1472094  32.8779280  27.6572599
  44.6702094  31.4699280  27.4682599  42.0002094  29.0409280  30.9482599
  42.0862094  29.9689280  31.1662599  42.0742094  28.5889280  31.7882599
  40.0672094  35.8989280  22.8812599  39.2112094  35.4739280  22.8292599
  40.4552094  35.7659280  22.0172599  37.3582094  34.3079280  14.2562599
  37.7902094  33.7659280  13.5952599  38.0312094  34.9289280  14.5342599
  37.8102094  33.5209280  30.4402599  38.7382094  33.3039280  30.5272599
  37.7782094  34.1519280  29.7222599  38.1082094  38.3949280  20.5622599
  38.6062094  37.8339280  19.9662599  37.2652094  38.5189280  20.1262599
  37.3162094   8.7149280  16.7582599  37.3212094   8.6429280  15.8032599
  37.8612094   7.9869280  17.0562599  45.0332094  13.0899280  39.4452599
  45.4082094  13.1749280  40.3212599  44.5502094  12.2639280  39.4692599
  37.7382094  31.4689280  19.0002599  37.3732094  31.8739280  18.2142599
  37.0442094  31.5469280  19.6552599  38.6712094  28.9489280  36.7352599
  39.1782094  28.3199280  36.2212599  38.0652094  29.3399280  36.1052599
  40.0302094  34.1479280  33.7632599  40.9562094  33.9329280  33.6482599
  40.0352094  35.0039280  34.1922599  40.9832094  11.0759280  12.1502599
  40.3462094  11.5339280  11.6012599  40.4562094  10.4899280  12.6922599
  40.3602094  38.1339280  34.4792599  40.0822094  37.9359280  33.5852599
  40.7962094  38.9839280  34.4132599  39.8912094  29.5969280  11.1492599
  39.0502094  30.0549280  11.1582599  40.0772094  29.4569280  10.2202599
  42.2262094  28.6959280  33.9322599  42.6202094  29.2419280  34.6122599
  41.4202094  28.3639280  34.3282599  39.2512094  10.8779280  30.2542599
  39.2232094  11.5369280  29.5602599  38.5792094  10.2419280  30.0092599
  38.0562094  14.6529280  11.5192599  38.3852094  15.1069280  10.7432599
  38.8002094  14.6339280  12.1202599  41.7502094  34.2979280  36.5882599
  40.8152094  34.4639280  36.7052599  41.8882094  33.4269280  36.9622599
  44.1512094  35.7099280  44.7472599  43.4462094  35.1529280  45.0772599
  44.1762094  36.4489280  45.3552599  43.0662094  15.4049280  49.3152599
  42.6012094  14.6079280  49.0622599  43.0902094  15.9319280  48.5162599
  37.8232094  22.5089280  49.1502599  37.0002094  22.8289280  48.7782599
  38.0962094  21.8079280  48.5592599  39.5762094  29.2059280  44.4602599
  40.3692094  29.7419280  44.4612599  39.8602094  28.3559280  44.7962599
  38.7762094  16.3039280  45.7522599  39.1002094  15.5159280  45.3172599
  39.5622094  16.7299280  46.0952599  45.5412094  14.8199280  44.1162599
  46.2052094  15.3419280  43.6662599  45.1752094  15.4129280  44.7732599
  44.9812094  22.2059280  47.7062599  44.3462094  21.9449280  48.3732599
  45.5522094  21.4439280  47.6072599  42.1042094  22.5159280  46.6682599
  42.4302094  21.7169280  47.0832599  41.5832094  22.9439280  47.3472599
  40.1872094  32.1569280  45.6072599  39.7472094  31.5669280  46.2192599
  40.9782094  31.6859280  45.3452599  44.5642094  37.2479280  42.2942599
  43.8682094  36.7229280  41.8992599  44.4742094  37.0959280  43.2352599
  43.1942094   9.3159280  45.0772599  44.0432094   8.9069280  44.9082599
  43.3482094  10.2509280  44.9452599  45.8502094  31.5209280  46.3412599
  46.3512094  31.1389280  47.0622599  46.4922094  31.6459280  45.6422599
  41.6772094  12.7509280  49.2252599  41.0062094  12.1129280  49.4652599
  41.9392094  12.5029280  48.3392599  43.3852094  37.2219280  48.0062599
  42.8102094  37.7579280  48.5512599  44.1262094  37.7929280  47.8032599
  45.6892094  12.5739280  49.2262599  46.0502094  12.8899280  48.3982599
  46.1682094  11.7639280  49.4032599  41.3592094  16.4759280  47.1722599
  40.7872094  16.7669280  47.8822599  41.5102094  17.2619280  46.6472599
  44.8332094  24.0249280  41.1752599  45.3252094  23.3419280  41.6302599
  45.3372094  24.8249280  41.3252599  41.0432094  36.7029280  46.7242599
  40.7202094  37.5579280  46.4392599  41.9272094  36.8749280  47.0462599
  42.9902094  24.5139280  44.9262599  43.7822094  24.0779280  44.6122599
  42.8052094  24.0969280  45.7682599  40.3852094  23.7229280  48.6092599
  39.7872094  23.8499280  47.8732599  39.9132094  23.1429280  49.2052599
  42.4762094  25.0329280  41.8582599  43.3852094  24.8369280  42.0872599
  42.2822094  24.4469280  41.1272599  43.2692094  20.1919280  43.7402599
  42.4492094  20.6849280  43.7032599  43.9072094  20.8139280  44.0892599
  43.5692094  12.3139280  46.8922599  44.0112094  12.5969280  47.6922599
  43.9642094  12.8439280  46.1992599  45.1892094  22.2369280  44.9012599
  45.8712094  22.8509280  44.6302599  45.1132094  22.3639280  45.8472599
  45.0112094  18.1409280  42.5162599  45.8862094  17.8309280  42.7482599
  44.5572094  18.2299280  43.3542599  42.5632094  14.2869280  45.1542599
  43.1252094  15.0289280  44.9312599  42.3142094  14.4399280  46.0662599
  42.8612094  32.0559280  40.6962599  43.2822094  32.3049280  41.5192599
  43.5712094  31.7009280  40.1622599  40.2152094  26.7039280  42.0472599
  40.3442094  27.6519280  42.0762599  41.0602094  26.3549280  41.7662599
  40.7422094  21.2179280  43.8892599  39.9092094  20.8499280  44.1862599
  40.6492094  22.1609280  44.0252599  44.9892094  24.9799280  47.6782599
  44.8022094  24.0499280  47.8032599  45.0202094  25.3409280  48.5642599
  44.3982094  16.4419280  46.0002599  43.8292094  17.1939280  46.1652599
  45.1562094  16.5849280  46.5662599  42.0822094  27.2889280  47.1052599
  42.4792094  28.1339280  47.3182599  42.5962094  26.9619280  46.3672599
  38.0652094  37.5689280  41.8312599  38.3652094  38.0809280  41.0802599
  38.2252094  36.6589280  41.5812599  37.2252094  29.9139280  45.3132599
  38.1182094  29.5909280  45.1972599  36.6772094  29.2729280  44.8592599
  42.9852094  29.8329280  47.3792599  43.6412094  30.2159280  47.9612599
  42.1692094  29.8709280  47.8782599  39.4972094  27.2229280  46.1382599
  38.8502094  27.0619280  46.8262599  40.3422094  27.0879280  46.5672599
  43.6832094  27.3399280  42.9942599  43.0912094  27.9549280  42.5612599
  43.1842094  26.5249280  43.0492599  44.4522094  31.5249280  44.0062599
  44.7602094  32.2879280  43.5182599  44.8332094  31.6279280  44.8782599
  40.4342094  23.9199280  43.8242599  40.8232094  24.5779280  43.2482599
  40.9872094  23.9279280  44.6052599  43.8922094  33.3029280  47.6382599
  44.5012094  32.8199280  47.0802599  43.2392094  33.6549280  47.0332599
  37.9682094  26.2139280  43.6842599  38.5622094  26.2689280  44.4332599
  38.4932094  26.5049280  42.9392599  37.8022094  23.1789280  43.0472599
  37.1732094  23.8899280  43.1662599  38.6532094  23.5789280  43.2242599
  40.3612094   9.0189280  45.1882599  41.3162094   9.0859280  45.1822599
  40.0652094   9.8439280  45.5722599  38.8682094  36.8859280  48.1962599
  39.5372094  36.3769280  47.7402599  38.0832094  36.3399280  48.1582599
  38.6002094  35.1909280  41.0102599  39.3762094  35.5039280  40.5452599
  38.4222094  34.3319280  40.6282599  40.6282094  14.6169280  42.5192599
  41.1902094  15.2839280  42.1242599  41.1632094  14.2349280  43.2152599
  37.3242094  11.9949280  46.4512599  37.1792094  11.0809280  46.2092599
  37.2602094  12.0029280  47.4062599  41.9352094  34.8659280  42.6952599
  42.0182094  34.1449280  43.3192599  41.1152094  35.2969280  42.9332599
  42.7052094  29.2999280  41.2482599  41.8002094  29.3389280  40.9382599
  43.0562094  30.1729280  41.0742599  42.0562094  30.4419280  45.1072599
  42.6712094  30.7729280  44.4522599  42.5752094  30.3709280  45.9092599
  38.3712094  32.3039280  42.8962599  38.8912094  31.8079280  42.2642599
  38.8092094  32.1579280  43.7342599  37.7462094  11.8729280  42.7202599
  38.0912094  12.3779280  41.9842599  36.8072094  11.8059280  42.5462599
  38.8832094  22.9989280  46.2682599  38.2612094  22.9489280  45.5412599
  38.9492094  22.0999280  46.5892599  41.9802094  34.2489280  45.8622599
  41.5402094  35.0729280  46.0742599  41.2672094  33.6309280  45.7022599
  37.2182094  14.7709280  47.9032599  36.6402094  14.3299280  47.2792599
  37.8962094  15.1729280  47.3592599  39.8242094  17.3629280  49.2482599
  40.2472094  17.5649280  50.0832599  38.9582094  17.7639280  49.3152599
  43.2532094  11.9409280  43.9492599  42.9002094  12.8049280  44.1632599
  42.5632094  11.5219280  43.4342599  43.0742094  18.7169280  45.9782599
  42.8232094  19.2729280  46.7162599  43.0602094  19.3019280  45.2212599
  38.3912094  26.7679280  48.7732599  38.9742094  26.8959280  49.5222599
  37.6012094  26.3779280  49.1472599  41.5932094  19.3059280  41.6622599
  40.8872094  19.8789280  41.9612599  42.3112094  19.4699280  42.2742599
  45.7012094  27.3609280  45.3082599  45.6322094  26.4309280  45.5242599
  45.0612094  27.4929280  44.6092599  38.1022094  20.6339280  44.1272599
  37.9542094  21.2959280  43.4522599  37.4322094  19.9699280  43.9632599
  38.1662094  20.2199280  47.0802599  37.9932094  20.0049280  46.1632599
  38.0252094  19.3979280  47.5502599  38.9012094  13.1839280  44.8412599
  38.5802094  12.7669280  44.0412599  38.2732094  12.9249280  45.5152599
  42.4652094  19.9919280  48.1622599  42.0322094  19.3589280  48.7362599
  42.7622094  20.6849280  48.7512599  41.8262094  16.6419280  40.9752599
  41.7372094  17.5779280  41.1542599  42.7672094  16.4759280  41.0302599
  40.9732094  11.5749280  46.1552599  41.9272094  11.6519280  46.1882599
  40.6902094  12.3199280  45.6252599  39.2672094  36.7699280  44.1222599
  38.8352094  37.2109280  43.3912599  39.6542094  37.4799280  44.6352599
  37.3582094  34.3079280  44.2562599  37.7902094  33.7659280  43.5952599
  38.0312094  34.9289280  44.5342599  37.3162094   8.7149280  46.7582599
  37.3212094   8.6429280  45.8032599  37.8612094   7.9869280  47.0562599
  37.7382094  31.4689280  49.0002599  37.3732094  31.8739280  48.2142599
  37.0442094  31.5469280  49.6552599  40.9832094  11.0759280  42.1502599
  40.3462094  11.5339280  41.6012599  40.4562094  10.4899280  42.6922599
  39.8912094  29.5969280  41.1492599  39.0502094  30.0549280  41.1582599
  40.0772094  29.4569280  40.2202599  38.0562094  14.6529280  41.5192599
  38.3852094  15.1069280  40.7432599  38.8002094  14.6339280  42.1202599
  43.0662094  45.4049280 -10.6847401  42.6012094  44.6079280 -10.9377401
  43.0902094  45.9319280 -11.4837401  39.7202094  45.5989280   9.4612599
  40.4612094  46.0109280   9.9072599  40.0502094  45.3959280   8.5862599
  38.7762094  46.3039280 -14.2477401  39.1002094  45.5159280 -14.6827401
  39.5622094  46.7299280 -13.9047401  41.5652094  40.1309280  -2.7477401
  40.6342094  40.2679280  -2.9217401  41.9552094  40.0069280  -3.6127401
  45.5412094  44.8199280 -15.8837401  46.2052094  45.3419280 -16.3337401
  45.1752094  45.4129280 -15.2267401  44.3952094  46.6389280  10.4662599
  44.5472094  47.1779280  11.2422599  45.2522094  46.5769280  10.0452599
  41.8742094  42.0469280  -7.0387401  41.0212094  42.3859280  -7.3127401
  42.4182094  42.8269280  -6.9317401  43.1942094  39.3159280 -14.9227401
  44.0432094  38.9069280 -15.0917401  43.3482094  40.2509280 -15.0547401
  40.9802094  44.3649280  -0.8397401  41.7232094  43.8299280  -1.1177401
  40.2292094  43.9899280  -1.3007401  44.4522094  43.9229280  -8.6157401
  43.8372094  44.5009280  -9.0677401  44.8282094  43.3819280  -9.3097401
  41.6772094  42.7509280 -10.7747401  41.0062094  42.1129280 -10.5347401
  41.9392094  42.5029280 -11.6607401  38.7632094  40.2729280  -7.0067401
  38.8572094  39.8339280  -7.8517401  38.9682094  41.1899280  -7.1877401
  41.6572094  45.4269280   1.7092599  41.5632094  45.1529280   0.7962599
  41.6472094  46.3829280   1.6752599  45.6892094  42.5739280 -10.7737401
  46.0502094  42.8899280 -11.6017401  46.1682094  41.7639280 -10.5967401
  41.3592094  46.4759280 -12.8277401  40.7872094  46.7669280 -12.1177401
  41.5102094  47.2619280 -13.3527401  39.6572094  40.7049280  -9.8997401
  39.1082094  41.4429280 -10.1667401  39.0692094  39.9499280  -9.9187401
  45.2072094  39.4869280  -5.3227401  45.3742094  40.2399280  -5.8897401
  45.7722094  39.6299280  -4.5617401  41.6192094  38.4059280 -10.2337401
  42.1412094  38.7649280  -9.5167401  40.8952094  39.0239280 -10.3367401
  39.3812094  40.8689280  -4.3657401  39.1732094  40.4509280  -5.2017401
  39.9462094  41.6059280  -4.6007401  43.1482094  39.7319280  -8.5467401
  43.8962094  40.3269280  -8.5027401  42.3892094  40.2859280  -8.3627401
  43.5692094  42.3139280 -13.1077401  44.0112094  42.5969280 -12.3077401
  43.9642094  42.8439280 -13.8007401  42.5632094  44.2869280 -14.8457401
  43.1252094  45.0289280 -15.0687401  42.3142094  44.4399280 -13.9337401
  42.8512094  46.6109280  -1.1337401  43.4502094  46.3149280  -0.4477401
  42.3762094  45.8219280  -1.3937401  43.0982094  44.6999280   3.7902599
  43.0512094  43.7439280   3.7752599  42.4452094  44.9829280   3.1512599
  42.8832094  44.9969280   8.5792599  43.4602094  45.2199280   7.8492599
  43.4172094  45.1429280   9.3602599  41.5612094  40.4709280   3.2062599
  42.2322094  41.0229280   3.6092599  40.9412094  41.0899280   2.8222599
  38.9622094  39.0619280   9.5502599  39.7622094  39.5079280   9.8282599
  38.2952094  39.7489280   9.5422599  44.5982094  46.6829280   3.1532599
  44.1912094  45.8249280   3.2712599  44.0852094  47.0989280   2.4602599
  43.1462094  40.9219280  10.2662599  42.5902094  40.8499280  11.0412599
  42.6622094  40.4639280   9.5792599  44.3982094  46.4419280 -13.9997401
  43.8292094  47.1939280 -13.8347401  45.1562094  46.5849280 -13.4337401
  44.0962094  43.0059280  -3.9147401  43.6142094  43.5579280  -4.5297401
  43.4692094  42.8209280  -3.2157401  42.3022094  42.4419280   7.4872599
  41.3742094  42.5769280   7.2962599  42.5362094  43.1659280   8.0672599
  40.7442094  45.6269280   6.6582599  41.5442094  45.1079280   6.7422599
  40.5982094  45.6909280   5.7142599  38.0622094  41.8539280   4.5742599
  37.7432094  40.9769280   4.3632599  38.8252094  41.9749280   4.0082599
  45.1342094  45.5329280   0.3502599  45.1112094  44.5769280   0.3232599
  45.9742094  45.7419280   0.7602599  38.3092094  44.4899280  -9.7447401
  37.8362094  44.7569280 -10.5327401  39.1082094  45.0169280  -9.7537401
  39.3552094  43.1129280  -7.2957401  38.8792094  43.4539280  -8.0527401
  39.0312094  43.6269280  -6.5567401  38.1792094  38.4309280   6.3512599
  38.9642094  38.5019280   5.8082599  38.4292094  38.8249280   7.1872599
  40.3612094  39.0189280 -14.8117401  41.3162094  39.0859280 -14.8177401
  40.0652094  39.8439280 -14.4277401  44.3872094  40.6209280   0.4112599
  44.9392094  39.8549280   0.2542599  43.6362094  40.2799280   0.8982599
  40.6282094  44.6169280 -17.4807401  41.1902094  45.2839280 -17.8757401
  41.1632094  44.2349280 -16.7847401  37.3242094  41.9949280 -13.5487401
  37.1792094  41.0809280 -13.7907401  37.2602094  42.0029280 -12.5937401
  42.2422094  39.4359280   8.2312599  42.4242094  40.2449280   7.7542599
  42.1112094  38.7789280   7.5472599  45.4402094  39.7029280   8.7572599
  44.7832094  39.8439280   9.4392599  45.3762094  38.7689280   8.5532599
  42.6892094  38.6119280   1.5112599  42.3392094  39.2389280   2.1442599
  42.5512094  37.7569280   1.9202599  37.2482094  45.1639280  -1.8027401
  37.9662094  45.7679280  -1.6137401  36.9052094  45.4569280  -2.6467401
  42.8032094  42.3519280  -1.4237401  43.3172094  41.8509280  -0.7917401
  42.2972094  41.6919280  -1.8987401  37.7462094  41.8729280 -17.2797401
  38.0912094  42.3779280 -18.0157401  36.8072094  41.8059280 -17.4537401
  37.2182094  44.7709280 -12.0967401  36.6402094  44.3299280 -12.7207401
  37.8962094  45.1729280 -12.6407401  42.5982094  40.0749280  -5.2847401
  43.5402094  39.9819280  -5.4317401  42.3072094  40.6809280  -5.9657401
  45.7372094  42.8349280   0.0422599  46.3442094  42.5319280   0.7182599
  45.0022094  42.2229280   0.0892599  39.8832094  42.5259280   2.4852599
  39.4932094  42.0229280   1.7702599  40.1872094  43.3339280   2.0702599
  39.1542094  46.6879280  -0.9587401  40.0052094  47.0919280  -0.7907401
  38.5962094  46.9979280  -0.2457401  43.2532094  41.9409280 -16.0507401
  42.9002094  42.8049280 -15.8367401  42.5632094  41.5219280 -16.5657401
  38.4422094  45.2469280  -5.2227401  37.5542094  45.1739280  -4.8757401
  38.7352094  46.1169280  -4.9527401  37.8702094  42.9169280   7.1942599
  38.0092094  42.7709280   6.2592599  38.0642094  43.8449280   7.3242599
  39.8362094  45.5079280   3.9442599  40.1032094  46.3199280   3.5122599
  39.2912094  45.0599280   3.2962599  38.9012094  43.1839280 -15.1587401
  38.5802094  42.7669280 -15.9587401  38.2732094  42.9249280 -14.4847401
  39.7042094  42.2269280   9.6082599  39.5272094  43.1659280   9.6512599
  39.1922094  41.9189280   8.8602599  37.3082094  45.6099280   5.6502599
  38.1882094  45.7439280   5.2962599  36.8652094  46.4479280   5.5152599
  43.2392094  44.4749280  -6.3957401  43.9492094  44.3619280  -7.0277401
  43.1672094  45.4219280  -6.2817401  43.3632094  42.0819280   4.4752599
  44.2192094  41.8699280   4.8482599  42.8142094  42.2809280   5.2332599
  41.8262094  46.6419280 -19.0247401  41.7372094  47.5779280 -18.8457401
  42.7672094  46.4759280 -18.9697401  40.7662094  43.7299280  -4.6627401
  41.4742094  44.1829280  -5.1217401  40.0342094  44.3469280  -4.6817401
  38.8972094  42.9949280  -2.0237401  38.4552094  42.5489280  -2.7467401
  38.2682094  43.6529280  -1.7277401  40.9732094  41.5749280 -13.8447401
  41.9272094  41.6519280 -13.8117401  40.6902094  42.3199280 -14.3747401
  37.3162094  38.7149280 -13.2417401  37.3212094  38.6429280 -14.1967401
  37.8612094  37.9869280 -12.9437401  45.0332094  43.0899280   9.4452599
  45.4082094  43.1749280  10.3212599  44.5502094  42.2639280   9.4692599
  40.9832094  41.0759280 -17.8497401  40.3462094  41.5339280 -18.3987401
  40.4562094  40.4899280 -17.3077401  39.2512094  40.8779280   0.2542599
  39.2232094  41.5369280  -0.4397401  38.5792094  40.2419280   0.0092599
  38.0562094  44.6529280 -18.4807401  38.3852094  45.1069280 -19.2567401
  38.8002094  44.6339280 -17.8797401  43.0662094  45.4049280  19.3152599
  42.6012094  44.6079280  19.0622599  43.0902094  45.9319280  18.5162599
  39.7202094  45.5989280  39.4612599  40.4612094  46.0109280  39.9072599
  40.0502094  45.3959280  38.5862599  38.7762094  46.3039280  15.7522599
  39.1002094  45.5159280  15.3172599  39.5622094  46.7299280  16.0952599
  41.5652094  40.1309280  27.2522599  40.6342094  40.2679280  27.0782599
  41.9552094  40.0069280  26.3872599  45.5412094  44.8199280  14.1162599
  46.2052094  45.3419280  13.6662599  45.1752094  45.4129280  14.7732599
  44.3952094  46.6389280  40.4662599  44.5472094  47.1779280  41.2422599
  45.2522094  46.5769280  40.0452599  41.8742094  42.0469280  22.9612599
  41.0212094  42.3859280  22.6872599  42.4182094  42.8269280  23.0682599
  43.1942094  39.3159280  15.0772599  44.0432094  38.9069280  14.9082599
  43.3482094  40.2509280  14.9452599  40.9802094  44.3649280  29.1602599
  41.7232094  43.8299280  28.8822599  40.2292094  43.9899280  28.6992599
  44.4522094  43.9229280  21.3842599  43.8372094  44.5009280  20.9322599
  44.8282094  43.3819280  20.6902599  41.6772094  42.7509280  19.2252599
  41.0062094  42.1129280  19.4652599  41.9392094  42.5029280  18.3392599
  38.7632094  40.2729280  22.9932599  38.8572094  39.8339280  22.1482599
  38.9682094  41.1899280  22.8122599  41.6572094  45.4269280  31.7092599
  41.5632094  45.1529280  30.7962599  41.6472094  46.3829280  31.6752599
  45.6892094  42.5739280  19.2262599  46.0502094  42.8899280  18.3982599
  46.1682094  41.7639280  19.4032599  41.3592094  46.4759280  17.1722599
  40.7872094  46.7669280  17.8822599  41.5102094  47.2619280  16.6472599
  39.6572094  40.7049280  20.1002599  39.1082094  41.4429280  19.8332599
  39.0692094  39.9499280  20.0812599  45.2072094  39.4869280  24.6772599
  45.3742094  40.2399280  24.1102599  45.7722094  39.6299280  25.4382599
  41.6192094  38.4059280  19.7662599  42.1412094  38.7649280  20.4832599
  40.8952094  39.0239280  19.6632599  39.3812094  40.8689280  25.6342599
  39.1732094  40.4509280  24.7982599  39.9462094  41.6059280  25.3992599
  43.1482094  39.7319280  21.4532599  43.8962094  40.3269280  21.4972599
  42.3892094  40.2859280  21.6372599  43.5692094  42.3139280  16.8922599
  44.0112094  42.5969280  17.6922599  43.9642094  42.8439280  16.1992599
  42.5632094  44.2869280  15.1542599  43.1252094  45.0289280  14.9312599
  42.3142094  44.4399280  16.0662599  42.8512094  46.6109280  28.8662599
  43.4502094  46.3149280  29.5522599  42.3762094  45.8219280  28.6062599
  43.0982094  44.6999280  33.7902599  43.0512094  43.7439280  33.7752599
  42.4452094  44.9829280  33.1512599  42.8832094  44.9969280  38.5792599
  43.4602094  45.2199280  37.8492599  43.4172094  45.1429280  39.3602599
  41.5612094  40.4709280  33.2062599  42.2322094  41.0229280  33.6092599
  40.9412094  41.0899280  32.8222599  38.9622094  39.0619280  39.5502599
  39.7622094  39.5079280  39.8282599  38.2952094  39.7489280  39.5422599
  44.5982094  46.6829280  33.1532599  44.1912094  45.8249280  33.2712599
  44.0852094  47.0989280  32.4602599  43.1462094  40.9219280  40.2662599
  42.5902094  40.8499280  41.0412599  42.6622094  40.4639280  39.5792599
  44.3982094  46.4419280  16.0002599  43.8292094  47.1939280  16.1652599
  45.1562094  46.5849280  16.5662599  44.0962094  43.0059280  26.0852599
  43.6142094  43.5579280  25.4702599  43.4692094  42.8209280  26.7842599
  42.3022094  42.4419280  37.4872599  41.3742094  42.5769280  37.2962599
  42.5362094  43.1659280  38.0672599  40.7442094  45.6269280  36.6582599
  41.5442094  45.1079280  36.7422599  40.5982094  45.6909280  35.7142599
  38.0622094  41.8539280  34.5742599  37.7432094  40.9769280  34.3632599
  38.8252094  41.9749280  34.0082599  45.1342094  45.5329280  30.3502599
  45.1112094  44.5769280  30.3232599  45.9742094  45.7419280  30.7602599
  38.3092094  44.4899280  20.2552599  37.8362094  44.7569280  19.4672599
  39.1082094  45.0169280  20.2462599  39.3552094  43.1129280  22.7042599
  38.8792094  43.4539280  21.9472599  39.0312094  43.6269280  23.4432599
  40.3612094  39.0189280  15.1882599  41.3162094  39.0859280  15.1822599
  40.0652094  39.8439280  15.5722599  44.3872094  40.6209280  30.4112599
  44.9392094  39.8549280  30.2542599  43.6362094  40.2799280  30.8982599
  40.6282094  44.6169280  12.5192599  41.1902094  45.2839280  12.1242599
  41.1632094  44.2349280  13.2152599  37.3242094  41.9949280  16.4512599
  37.1792094  41.0809280  16.2092599  37.2602094  42.0029280  17.4062599
  42.2422094  39.4359280  38.2312599  42.4242094  40.2449280  37.7542599
  42.1112094  38.7789280  37.5472599  45.4402094  39.7029280  38.7572599
  44.7832094  39.8439280  39.4392599  45.3762094  38.7689280  38.5532599
  42.6892094  38.6119280  31.5112599  42.3392094  39.2389280  32.1442599
  42.5512094  37.7569280  31.9202599  37.2482094  45.1639280  28.1972599
  37.9662094  45.7679280  28.3862599  36.9052094  45.4569280  27.3532599
  42.8032094  42.3519280  28.5762599  43.3172094  41.8509280  29.2082599
  42.2972094  41.6919280  28.1012599  37.7462094  41.8729280  12.7202599
  38.0912094  42.3779280  11.9842599  36.8072094  41.8059280  12.5462599
  37.2182094  44.7709280  17.9032599  36.6402094  44.3299280  17.2792599
  37.8962094  45.1729280  17.3592599  42.5982094  40.0749280  24.7152599
  43.5402094  39.9819280  24.5682599  42.3072094  40.6809280  24.0342599
  45.7372094  42.8349280  30.0422599  46.3442094  42.5319280  30.7182599
  45.0022094  42.2229280  30.0892599  39.8832094  42.5259280  32.4852599
  39.4932094  42.0229280  31.7702599  40.1872094  43.3339280  32.0702599
  39.1542094  46.6879280  29.0412599  40.0052094  47.0919280  29.2092599
  38.5962094  46.9979280  29.7542599  43.2532094  41.9409280  13.9492599
  42.9002094  42.8049280  14.1632599  42.5632094  41.5219280  13.4342599
  38.4422094  45.2469280  24.7772599  37.5542094  45.1739280  25.1242599
  38.7352094  46.1169280  25.0472599  37.8702094  42.9169280  37.1942599
  38.0092094  42.7709280  36.2592599  38.0642094  43.8449280  37.3242599
  39.8362094  45.5079280  33.9442599  40.1032094  46.3199280  33.5122599
  39.2912094  45.0599280  33.2962599  38.9012094  43.1839280  14.8412599
  38.5802094  42.7669280  14.0412599  38.2732094  42.9249280  15.5152599
  39.7042094  42.2269280  39.6082599  39.5272094  43.1659280  39.6512599
  39.1922094  41.9189280  38.8602599  37.3082094  45.6099280  35.6502599
  38.1882094  45.7439280  35.2962599  36.8652094  46.4479280  35.5152599
  43.2392094  44.4749280  23.6042599  43.9492094  44.3619280  22.9722599
  43.1672094  45.4219280  23.7182599  43.3632094  42.0819280  34.4752599
  44.2192094  41.8699280  34.8482599  42.8142094  42.2809280  35.2332599
  41.8262094  46.6419280  10.9752599  41.7372094  47.5779280  11.1542599
  42.7672094  46.4759280  11.0302599  40.7662094  43.7299280  25.3372599
  41.4742094  44.1829280  24.8782599  40.0342094  44.3469280  25.3182599
  38.8972094  42.9949280  27.9762599  38.4552094  42.5489280  27.2532599
  38.2682094  43.6529280  28.2722599  40.9732094  41.5749280  16.1552599
  41.9272094  41.6519280  16.1882599  40.6902094  42.3199280  15.6252599
  37.3162094  38.7149280  16.7582599  37.3212094  38.6429280  15.8032599
  37.8612094  37.9869280  17.0562599  45.0332094  43.0899280  39.4452599
  45.4082094  43.1749280  40.3212599  44.5502094  42.2639280  39.4692599
  40.9832094  41.0759280  12.1502599  40.3462094  41.5339280  11.6012599
  40.4562094  40.4899280  12.6922599  39.2512094  40.8779280  30.2542599
  39.2232094  41.5369280  29.5602599  38.5792094  40.2419280  30.0092599
  38.0562094  44.6529280  11.5192599  38.3852094  45.1069280  10.7432599
  38.8002094  44.6339280  12.1202599  43.0662094  45.4049280  49.3152599
  42.6012094  44.6079280  49.0622599  43.0902094  45.9319280  48.5162599
  38.7762094  46.3039280  45.7522599  39.1002094  45.5159280  45.3172599
  39.5622094  46.7299280  46.0952599  45.5412094  44.8199280  44.1162599
  46.2052094  45.3419280  43.6662599  45.1752094  45.4129280  44.7732599
  43.1942094  39.3159280  45.0772599  44.0432094  38.9069280  44.9082599
  43.3482094  40.2509280  44.9452599  41.6772094  42.7509280  49.2252599
  41.0062094  42.1129280  49.4652599  41.9392094  42.5029280  48.3392599
  45.6892094  42.5739280  49.2262599  46.0502094  42.8899280  48.3982599
  46.1682094  41.7639280  49.4032599  41.3592094  46.4759280  47.1722599
  40.7872094  46.7669280  47.8822599  41.5102094  47.2619280  46.6472599
  43.5692094  42.3139280  46.8922599  44.0112094  42.5969280  47.6922599
  43.9642094  42.8439280  46.1992599  42.5632094  44.2869280  45.1542599
  43.1252094  45.0289280  44.9312599  42.3142094  44.4399280  46.0662599
  44.3982094  46.4419280  46.0002599  43.8292094  47.1939280  46.1652599
  45.1562094  46.5849280  46.5662599  40.3612094  39.0189280  45.1882599
  41.3162094  39.0859280  45.1822599  40.0652094  39.8439280  45.5722599
  40.6282094  44.6169280  42.5192599  41.1902094  45.2839280  42.1242599
  41.1632094  44.2349280  43.2152599  37.3242094  41.9949280  46.4512599
  37.1792094  41.0809280  46.2092599  37.2602094  42.0029280  47.4062599
  37.7462094  41.8729280  42.7202599  38.0912094  42.3779280  41.9842599
  36.8072094  41.8059280  42.5462599  37.2182094  44.7709280  47.9032599
  36.6402094  44.3299280  47.2792599  37.8962094  45.1729280  47.3592599
  43.2532094  41.9409280  43.9492599  42.9002094  42.8049280  44.1632599
  42.5632094  41.5219280  43.4342599  38.9012094  43.1839280  44.8412599
  38.5802094  42.7669280  44.0412599  38.2732094  42.9249280  45.5152599
  41.8262094  46.6419280  40.9752599  41.7372094  47.5779280  41.1542599
  42.7672094  46.4759280  41.0302599  40.9732094  41.5749280  46.1552599
  41.9272094  41.6519280  46.1882599  40.6902094  42.3199280  45.6252599
  37.3162094  38.7149280  46.7582599  37.3212094  38.6429280  45.8032599
  37.8612094  37.9869280  47.0562599  40.9832094  41.0759280  42.1502599
  40.3462094  41.5339280  41.6012599  40.4562094  40.4899280  42.6922599
  38.0562094  44.6529280  41.5192599  38.3852094  45.1069280  40.7432599
  38.8002094  44.6339280  42.1202599  21.2422094  -0.8580720   0.4792599
  25.7322094  14.6709280 -10.4397401  38.1792094  38.4309280  36.3512599
  -4.4697906  34.1829280  46.6572599  33.1272094 -16.1280720  -4.6177401
 -15.6787906   2.0659280  -1.8687401  43.3632094 -17.9180720   4.4752599
   3.9302094  42.0499280  28.4762599  -8.5067906   7.2179280 -12.0137401
  13.0982094 -15.3000720   3.7902599 -18.3227906  42.7509280  49.2252599
  44.0622094  35.3619280  -9.6277401 -10.7467906  37.3229280  -9.6817401
  42.5792094 -11.7270720  32.1582599 -14.8657906  45.5329280  30.3502599
 -18.0197906  34.2489280  15.8622599  30.5282094   3.8039280  36.8832599
  41.1832094 -11.5320720  29.8502599  -1.7477906 -11.9240720  42.6282599
  41.5652094  10.1309280  27.2522599 -20.2097906  24.8209280  38.2192599
   8.4422094  45.2469280  -5.2227401  43.6832094  -2.6600720 -17.0057401
  -1.5787906 -19.8340720  21.6642599  21.8812094  36.0369280  40.0682599
  -3.1727906  -4.5010720  32.2802599  35.9892094  15.1879280  25.7312599
  24.0352094   8.0979280  -8.7657401  42.2532094  20.6339280  28.7592599
  -4.4497906  29.7949280 -18.7047401   8.8042094 -11.9030720  35.8202599
  45.3462094  19.8439280  10.1312599  13.2732094  -6.7060720  -7.9427401
  -9.7217906  43.5619280 -14.7217401  29.7532094  31.6189280  46.8632599
  23.8532094  20.7189280 -18.1887401 -19.9327906  35.8989280  -7.1187401
  -4.3467906   2.2399280 -10.1977401  37.7382094   1.4689280  19.0002599
 -22.1617906  -7.4400720   4.1392599  -1.5037906  29.7339280  21.5212599
 -13.3177906  24.3669280 -15.5117401  41.1072094   2.1689280   8.5182599
  16.2732094 -20.3880720  41.7892599   6.4052094   2.2019280 -13.5477401
  40.3612094 -20.9810720  45.1882599  14.4662094  34.8469280  36.9092599
  45.2202094  37.6039280  -8.8487401 -19.0167906 -18.9240720 -17.8497401
  40.2072094  -5.4740720  22.2102599  23.8532094  -9.2810720 -18.1887401
 -11.4477906 -11.6340720  29.3692599  16.4872094 -16.8150720  -2.7067401
  34.2982094  46.3589280  -8.6267401   7.3242094  41.9949280  46.4512599
  -4.3467906  32.2399280  19.8022599  29.6422094  42.0409280  13.2782599
  23.5982094  36.3669280  26.6542599 -10.1967906   0.4849280   5.1412599
  41.6572094 -14.5730720   1.7092599 -17.4207906  18.2729280   2.1582599
  22.7442094   3.9859280  36.9002599  38.1792094 -21.5690720  36.3512599
  23.5982094  36.3669280  -3.3457401  25.1612094 -11.3680720 -15.0457401
  27.3032094 -17.7270720  -4.3587401  15.2202094   7.6039280  -8.8487401
  68.7115811  68.7115811  68.7115811  90.0000000  90.0000000  90.0000000
