
30230  0.0000000e+00
   1.7610000  29.5480000  11.8970000   0.9420000  29.7430000  11.3320000
   1.7560000  30.2020000  12.6750000   2.6060000  29.6780000  11.3550000
   1.6870000  28.1680000  12.4540000   1.6570000  27.4340000  11.6510000
   0.4410000  28.0530000  13.2820000   0.2180000  28.8100000  14.2390000
   2.8780000  27.8540000  13.3760000   2.8160000  28.4880000  14.2640000
   4.1850000  28.1650000  12.6620000   4.1760000  29.1700000  12.2450000
   4.3320000  27.4640000  11.8380000   2.8560000  26.3760000  13.8210000
   1.9230000  25.8690000  13.5770000   2.9810000  26.3290000  14.9060000
   3.6650000  25.8130000  13.3650000   5.4010000  28.1220000  13.5760000
   5.5260000  27.1300000  14.0100000   5.2810000  28.8460000  14.3820000
   6.3080000  28.3680000  13.0330000  -0.3990000  27.1490000  12.8610000
  -0.1550000  26.5190000  12.1140000  -1.5590000  26.7980000  13.6190000
  -1.7650000  27.5710000  14.3630000  -1.3860000  25.4760000  14.3880000
  -0.5890000  24.5870000  14.0280000  -2.7460000  26.8050000  12.6790000
  -3.6390000  26.7300000  13.2970000  -2.7040000  25.9190000  12.0430000
  -2.7150000  28.0490000  11.7870000  -1.9580000  28.7710000  12.0980000
  -2.4710000  27.7420000  10.7660000  -4.0060000  28.8470000  11.7910000
  -5.0250000  28.3590000  12.3440000  -4.0030000  29.9730000  11.2360000
  -2.1510000  25.3890000  15.4680000  -2.8270000  26.1190000  15.6310000
  -2.0820000  24.3170000  16.4430000  -1.0440000  24.2120000  16.7470000
  -2.6610000  22.9820000  16.0140000  -3.8150000  22.8910000  15.6190000
  -2.8690000  24.7650000  17.6790000  -2.9210000  23.9400000  18.3930000
  -3.8910000  25.0100000  17.3830000  -2.2640000  25.9740000  18.3750000
  -2.9540000  26.3060000  19.1500000  -2.1470000  26.8000000  17.6730000
  -0.9570000  25.6650000  19.0470000  -0.8690000  24.7560000  19.8930000
   0.0650000  26.4460000  18.7130000   0.0230000  27.1960000  18.0510000
   0.9450000  26.3610000  19.2180000  -1.8580000  21.9110000  16.1030000
  -2.3850000  20.5850000  15.7650000  -2.7360000  20.5950000  14.7330000
  -3.4960000  20.0610000  16.6890000  -3.4130000  20.4230000  17.8610000
  -1.1180000  19.6800000  15.8810000  -1.0730000  18.9650000  15.0600000
  -1.1300000  19.1500000  16.8350000   0.0190000  20.5710000  15.8640000
   0.8620000  20.1570000  16.4170000   0.3160000  20.7490000  14.8290000
  -0.4270000  21.8800000  16.4710000  -0.3090000  21.8830000  17.5520000
   0.1330000  22.6960000  16.0150000  -4.4690000  19.2450000  16.2300000
  -4.5040000  19.0850000  15.2350000  -5.4880000  18.6400000  17.0950000
  -6.1260000  19.4300000  17.5010000  -4.8760000  17.9740000  18.2940000
  -5.4210000  18.0220000  19.3910000  -6.3560000  17.5900000  16.3760000
  -6.8690000  16.9730000  17.1180000  -5.6840000  16.9400000  15.8190000
  -7.3690000  18.1320000  15.4790000  -6.9520000  19.0220000  15.0050000
  -8.2390000  18.4570000  16.0530000  -7.7870000  17.2270000  14.3710000
  -8.2010000  17.8580000  13.5810000  -6.9110000  16.7160000  13.9640000
  -8.8010000  16.2630000  14.7500000  -9.1130000  16.2560000  15.7080000
  -9.3430000  15.3740000  13.9030000  -9.0090000  15.3770000  12.6220000
  -8.3300000  16.0400000  12.2940000  -9.4150000  14.7110000  11.9850000
 -10.2530000  14.5110000  14.3210000 -10.6650000  13.8580000  13.6720000
 -10.5330000  14.4970000  15.2870000  -3.7380000  17.2830000  18.0630000
  -3.2990000  17.3480000  17.1600000  -3.0910000  16.5040000  19.0950000
  -3.8530000  16.0290000  19.7160000  -2.2190000  17.3080000  20.0670000
  -1.6760000  16.7430000  20.9860000  -2.2580000  15.3920000  18.4230000
  -1.6340000  14.9080000  19.1730000  -2.9520000  14.6320000  18.0630000
  -1.3990000  15.8060000  17.2670000  -1.6410000  15.5870000  15.9570000
  -2.4840000  15.0380000  15.5680000  -0.1370000  16.4820000  17.3330000
  -0.6270000  16.0840000  15.1840000  -0.5420000  15.9630000  14.1800000
   0.3200000  16.6360000  16.0120000   0.6450000  16.9730000  18.3660000
   0.3250000  16.8580000  19.3860000   1.5190000  17.2870000  15.7080000
   1.8570000  17.3920000  14.6880000   1.8240000  17.6080000  18.0810000
   2.4430000  17.9920000  18.8810000   2.2750000  17.7210000  16.7400000
   3.2300000  18.1890000  16.5400000  -1.9430000  18.5830000  19.8120000
  -2.4680000  19.0960000  19.1140000  -1.0010000  19.3460000  20.6520000
  -0.1510000  18.7110000  20.8920000  -1.6310000  19.7820000  21.9490000
  -2.7890000  20.2100000  21.9750000  -0.4460000  20.5910000  19.9160000
   0.2080000  21.1630000  20.5750000  -1.2720000  21.2330000  19.6030000
   0.1200000  20.2680000  19.0430000  -0.8900000  19.6820000  23.0430000
   0.0710000  19.3660000  22.9750000  -1.4550000  20.0600000  24.3440000
  -2.3690000  19.4920000  24.5200000  -1.7510000  21.5240000  24.4120000
  -0.9720000  22.3570000  23.9710000  -0.4470000  19.7100000  25.4080000
  -0.3010000  18.6290000  25.4310000   0.5020000  20.1900000  25.1760000
  -0.9200000  20.1600000  26.6780000  -0.2570000  19.9630000  27.3460000
  -2.9080000  21.8610000  24.9880000  -3.5160000  21.1210000  25.3020000
  -3.2710000  23.2460000  25.2380000  -2.7070000  23.9120000  24.5800000
  -2.9220000  23.6560000  26.6640000  -3.2380000  24.8070000  27.0380000
  -4.7670000  23.4850000  25.0340000  -5.0110000  24.5000000  25.3500000
  -5.3160000  22.7890000  25.6720000  -5.2240000  23.3290000  23.5910000
  -4.9870000  22.3190000  23.2530000  -4.7030000  24.0400000  22.9470000
  -6.6980000  23.5200000  23.5020000  -7.0440000  23.0700000  22.5690000
  -7.1880000  22.9990000  24.3270000  -7.0690000  24.9810000  23.4920000
  -6.7740000  25.4070000  22.5270000  -6.4920000  25.4940000  24.2680000
  -8.5350000  25.1870000  23.7390000  -8.7680000  26.1690000  23.6830000
  -8.7900000  24.8500000  24.6600000  -9.0820000  24.6860000  23.0490000
  -2.3240000  22.7450000  27.4550000  -2.0160000  21.8800000  27.0340000
  -1.9430000  22.9860000  28.8540000  -2.8480000  23.1560000  29.4400000
  -1.0870000  24.1940000  28.9250000  -0.2160000  24.3900000  28.0660000
  -1.1820000  21.7890000  29.4630000  -1.7360000  20.8760000  29.2390000
  -0.1950000  21.7030000  29.0040000  -1.0340000  21.8870000  30.9800000
  -0.0330000  22.5010000  31.4700000  -1.8810000  21.3750000  31.7900000
  -1.2420000  24.9930000  29.9880000  -1.8080000  24.7130000  30.7770000
  -0.4440000  26.2050000  30.0700000  -0.6390000  26.8100000  29.1840000
   1.0670000  25.9370000  30.1100000   1.8530000  26.8010000  29.7120000
  -0.8470000  27.0180000  31.3030000  -1.9010000  27.2890000  31.2340000
  -0.2430000  27.9260000  31.3550000  -0.6320000  26.2330000  32.4530000
  -0.8190000  26.7500000  33.2400000   1.4760000  24.7550000  30.6010000
   0.7850000  24.0990000  30.9690000   2.9040000  24.3730000  30.7090000
   3.4990000  25.2840000  30.7870000   3.4550000  23.5730000  29.5080000
   4.6390000  23.2970000  29.4760000   3.1480000  23.5420000  31.9990000
   4.2030000  23.5700000  32.2690000   2.5560000  23.9470000  32.8190000
   2.8450000  22.5070000  31.8360000   2.6320000  23.1980000  28.5390000
   1.6650000  23.5070000  28.5720000   3.0600000  22.2090000  27.4690000
   2.9840000  21.2300000  27.9440000   4.4980000  22.1820000  26.7930000
   5.2310000  21.1330000  26.6600000   1.9960000  22.2430000  26.4090000
   1.9900000  23.2140000  25.9110000   2.1990000  21.4780000  25.6610000
   1.0140000  22.0750000  26.8490000   4.8840000  23.3450000  26.3370000
   4.2450000  24.1180000  26.4450000   6.1540000  23.5880000  25.6520000
   5.9620000  24.0720000  24.6940000   6.6920000  22.6590000  25.4700000
   7.0190000  24.5010000  26.4960000   7.9240000  25.1370000  25.9690000
   6.8030000  24.5250000  27.8160000   6.1240000  23.8980000  28.2370000
   7.5860000  25.3590000  28.6970000   8.0730000  26.1570000  28.1350000
   8.6060000  24.5360000  29.3800000   8.3590000  23.3790000  29.6880000
   6.6640000  25.9900000  29.7350000   7.2210000  26.6930000  30.3540000
   5.8510000  26.5210000  29.2390000   6.2420000  25.2180000  30.3790000
   9.7550000  25.1360000  29.5890000   9.8630000  26.0900000  29.2910000
  10.8870000  24.4820000  30.2040000  11.0730000  23.5310000  29.6990000
  10.6220000  24.2180000  31.6740000  10.0870000  25.0660000  32.4080000
  12.0700000  25.3730000  30.0530000  12.3590000  25.4280000  29.0050000
  12.9050000  24.9490000  30.6070000  11.8520000  26.3710000  30.4360000
  11.0360000  23.0530000  32.1370000  11.2510000  22.3170000  31.4550000
  10.9080000  22.6770000  33.5420000  10.5100000  23.5060000  34.1270000
  12.2430000  22.3080000  34.1650000  12.2860000  21.8670000  35.3290000
   9.9270000  21.5270000  33.6680000   9.6200000  21.4020000  34.7070000
  10.3980000  20.6080000  33.3130000   8.8000000  21.8070000  32.8520000
   9.0200000  22.4990000  32.2220000  13.3280000  22.4470000  33.3910000
  13.2070000  22.7140000  32.4240000  14.6760000  22.1510000  33.8530000
  14.6910000  22.2530000  34.9350000  15.6420000  23.1260000  33.2180000
  15.3280000  23.7270000  32.1890000  15.1360000  20.7320000  33.5040000
  16.0420000  20.4870000  34.0540000  15.4170000  20.6910000  32.0940000
  15.9580000  19.9280000  31.9200000  14.0720000  19.6660000  33.7920000
  13.7480000  19.7240000  34.8310000  14.4960000  18.6780000  33.6150000
  13.2140000  19.7860000  33.1280000  16.8280000  23.2240000  33.7760000
  17.8910000  24.0440000  33.2150000  17.6100000  25.0950000  33.2720000
  18.1730000  23.6840000  31.7490000  18.3120000  24.5850000  30.9270000
  19.0780000  23.7720000  34.1520000  19.6080000  22.8660000  33.8510000
  19.7660000  24.6180000  34.1850000  18.4010000  23.5410000  35.4880000
  19.0530000  23.0070000  36.1800000  18.0970000  24.4980000  35.9160000
  17.1870000  22.7320000  35.1420000  17.4550000  21.6760000  35.1060000
  16.4050000  22.9140000  35.8790000  18.3060000  22.4070000  31.4600000
  18.3550000  21.7120000  32.1860000  18.5700000  22.0200000  30.0720000
  19.4560000  22.5480000  29.7110000  17.4280000  22.3960000  29.1230000
  17.6660000  22.8020000  27.9770000  18.8320000  20.5410000  30.0020000
  18.7530000  20.2250000  28.9620000  18.0750000  20.0020000  30.5760000
  20.2100000  20.1520000  30.4780000  21.0840000  21.0380000  30.7120000
  20.5170000  18.9460000  30.5520000  16.2070000  22.2140000  29.5700000
  16.0490000  21.8570000  30.5060000  15.0610000  22.5830000  28.7340000
  15.1730000  22.1000000  27.7620000  15.0870000  24.0750000  28.4650000
  14.7280000  24.5430000  27.3690000  13.7300000  22.1220000  29.3180000
  12.9290000  22.5370000  28.7070000  13.6300000  22.5210000  30.3280000
  13.5730000  20.6150000  29.3580000  13.6180000  20.2520000  28.3310000
  14.4100000  20.1600000  29.8840000  12.2670000  20.1400000  29.9650000
  11.3480000  20.9690000  30.1770000  12.1380000  18.9240000  30.2490000
  15.4810000  24.8420000  29.4810000  15.7430000  24.4010000  30.3580000
  15.5570000  26.2740000  29.3320000  14.5910000  26.6540000  28.9960000
  16.5500000  26.6870000  28.2480000  16.2170000  27.5550000  27.4240000
  15.8870000  26.9180000  30.7210000  16.7780000  26.4550000  31.1360000
  16.1350000  27.9650000  30.5340000  14.7710000  26.8970000  31.7720000
  14.5020000  25.8860000  32.0370000  13.8840000  27.3840000  31.3660000
  15.2250000  27.6690000  33.0320000  15.0740000  28.7390000  32.8740000
  16.2980000  27.5040000  33.1480000  14.5460000  27.2290000  34.3220000
  13.5860000  27.7470000  34.4130000  14.3380000  26.1560000  34.2510000
  15.4350000  27.4970000  35.5280000  15.6250000  28.4910000  35.6040000
  16.3190000  27.0120000  35.4380000  14.9780000  27.1960000  36.3810000
  17.7220000  26.0600000  28.2690000  17.9030000  25.3950000  29.0130000
  18.7680000  26.3240000  27.2740000  19.0070000  27.3900000  27.2730000
  18.1980000  25.9640000  25.8610000  18.3640000  26.7430000  24.8960000
  20.0450000  25.5280000  27.5630000  19.7660000  24.4820000  27.7000000
  20.7530000  25.9940000  28.8480000  20.0230000  26.0360000  29.6540000
  21.1300000  27.0080000  28.7030000  21.0020000  25.5950000  26.3440000
  21.2240000  26.6340000  26.1020000  21.9380000  25.0870000  26.5690000
  20.5760000  25.0990000  25.4730000  21.9100000  25.0970000  29.3300000
  21.6090000  24.0490000  29.3090000  22.7570000  25.2660000  28.6860000
  22.1900000  25.3750000  30.3460000  17.5070000  24.8260000  25.7380000
  17.4150000  24.2110000  26.5430000  17.0340000  24.3960000  24.4300000
  17.8660000  24.4310000  23.7260000  15.9880000  25.3910000  23.8970000
  15.9830000  25.7240000  22.6990000  16.5120000  22.9410000  24.4720000
  15.8430000  22.8420000  25.3280000  15.7010000  22.5820000  23.2040000
  16.2970000  22.7670000  22.3100000  15.4320000  21.5270000  23.2400000
  14.7810000  23.1640000  23.1620000  17.6800000  22.0140000  24.6680000
  17.8520000  21.4180000  23.7750000  18.6000000  22.5510000  24.9000000
  17.4780000  21.3470000  25.5050000  15.0960000  25.9010000  24.7680000
  15.1050000  25.6140000  25.7430000  14.1250000  26.8590000  24.2950000
  13.6970000  26.5050000  23.3590000  14.8110000  28.2050000  23.9320000
  14.3610000  28.8580000  22.9880000  12.9980000  27.1180000  25.2920000
  13.4410000  27.3530000  26.2620000  12.4300000  27.9900000  24.9600000
  12.0450000  25.9420000  25.4320000  12.6040000  25.0780000  25.7830000
  11.0380000  26.2990000  26.4850000  10.3610000  27.0660000  26.1070000
  11.5340000  26.6750000  27.3760000  10.4590000  25.4120000  26.7410000
  11.3710000  25.5800000  24.1600000  10.9010000  26.4610000  23.7220000
  10.6010000  24.8340000  24.3620000  12.0790000  25.1450000  23.4570000
  15.8960000  28.5930000  24.6170000  16.1820000  28.0850000  25.4480000
  16.6570000  29.7850000  24.2090000  15.9800000  30.6390000  24.1290000
  17.2440000  29.5410000  22.8140000  17.2110000  30.4410000  21.9540000
  17.7620000  30.1250000  25.2080000  18.3360000  29.2250000  25.4210000
  18.4340000  30.8540000  24.7510000  17.2330000  30.7160000  26.5160000
  16.4160000  30.0940000  26.8840000  16.8140000  31.7010000  26.2970000
  18.2600000  30.8540000  27.6080000  19.4460000  30.6010000  27.3290000
  17.8810000  31.2170000  28.7580000  17.7560000  28.3360000  22.5970000
  17.7790000  27.6700000  23.3640000  18.3200000  27.9740000  21.2930000
  19.0890000  28.7040000  21.0390000  17.2480000  28.0460000  20.1990000
  17.4900000  28.5640000  19.1060000  18.9600000  26.6110000  21.4130000
  19.6550000  26.6200000  22.2550000  18.2010000  25.8610000  21.6230000
  19.7290000  26.1970000  20.1820000  19.3980000  25.0510000  19.4530000
  18.5640000  24.4460000  19.7710000  20.8330000  26.9180000  19.7820000
  21.1200000  27.8020000  20.3260000  20.1100000  24.6820000  18.3630000
  19.8180000  23.8010000  17.8090000  21.5780000  26.5130000  18.6800000
  22.4520000  27.0760000  18.3860000  21.1850000  25.3890000  17.9630000
  21.7440000  25.0780000  17.0930000  16.0530000  27.5340000  20.4840000
  15.8920000  27.1230000  21.3980000  14.9970000  27.5880000  19.5140000
  15.3050000  27.1150000  18.5860000  14.6840000  29.0380000  19.1410000
  14.4200000  29.3530000  17.9750000  13.7370000  26.9330000  20.0090000
  12.9330000  27.1720000  19.3110000  13.4630000  27.3560000  20.9760000
  13.7850000  25.4040000  20.1410000  12.7940000  25.0730000  20.4500000
  14.4770000  25.1280000  20.9310000  14.2170000  24.5020000  18.6650000
  16.0090000  24.4660000  18.7980000  16.2910000  24.0120000  19.7480000
  16.4410000  25.4600000  18.7340000  16.4150000  23.8670000  17.9830000
  14.6660000  29.9340000  20.1430000  14.7570000  29.6300000  21.1080000
  14.4450000  31.3450000  19.8740000  13.4960000  31.4670000  19.3470000
  15.5360000  31.9080000  18.9690000  15.2870000  32.7440000  18.1080000
  14.3740000  32.1270000  21.1930000  15.2200000  31.8800000  21.8290000
  14.4420000  33.1910000  20.9600000  13.0870000  31.9190000  21.9730000
  12.0850000  31.4270000  21.4100000  12.9880000  32.2780000  23.1720000
  16.7500000  31.4540000  19.1720000  16.8970000  30.7970000  19.9320000
  17.8890000  31.9610000  18.4280000  17.8170000  33.0480000  18.3950000
  17.9140000  31.4630000  16.9740000  18.6050000  32.0670000  16.1650000
  19.1320000  31.6010000  19.1110000  19.9800000  32.0710000  18.6140000
  19.0960000  31.9300000  20.1510000  19.2720000  30.5190000  19.0930000
  17.2060000  30.3810000  16.6240000  16.6580000  29.9040000  17.3330000
  17.2630000  29.8480000  15.2520000  18.2970000  29.6060000  15.0170000
  16.8570000  30.8800000  14.2050000  17.4030000  30.8750000  13.0890000
  16.3830000  28.6010000  15.0970000  15.3860000  28.8330000  15.4740000
  16.2830000  28.3840000  14.0340000  16.8890000  27.3530000  15.7860000
  16.9260000  27.5160000  16.8590000  15.9700000  26.2110000  15.5280000
  14.9820000  26.4210000  15.9380000  16.3530000  25.3090000  16.0030000
  15.8740000  26.0280000  14.4570000  18.2600000  27.0380000  15.3030000
  18.2980000  27.0400000  14.2140000  18.5540000  26.0550000  15.6690000
  18.9750000  27.7480000  15.7140000  15.8880000  31.7520000  14.5340000
  15.4650000  31.7260000  15.4570000  15.4300000  32.7450000  13.5840000
  15.2470000  32.2550000  12.6290000  16.4780000  33.8400000  13.3180000
  16.2610000  34.6490000  12.4310000  14.1200000  33.3830000  14.0330000
  13.8680000  34.2260000  13.3890000  14.2590000  33.8510000  15.3880000
  14.7750000  34.6570000  15.3920000  12.9550000  32.3980000  14.0120000
  12.5780000  32.2910000  13.0010000  12.1700000  32.8230000  14.6420000
  13.2210000  31.4070000  14.3690000  17.6100000  33.8210000  14.0190000
  17.7740000  33.0940000  14.7100000  18.7120000  34.7070000  13.6610000
  18.3460000  35.7300000  13.5780000  19.3590000  34.3280000  12.3360000
  20.0320000  35.1560000  11.7010000  19.8100000  34.6540000  14.7160000
  20.5190000  35.4620000  14.5270000  19.3610000  34.8100000  15.6970000
  20.5220000  33.4130000  14.7210000  21.3970000  33.5560000  14.3490000
  19.2140000  33.0650000  11.9380000  18.6360000  32.4300000  12.4790000
  19.8690000  32.5650000  10.6980000  19.7550000  31.4850000  10.6620000
  21.3690000  32.8660000  10.7430000  21.9970000  33.0850000   9.7050000
  19.2500000  33.1840000   9.4280000  19.7930000  32.8270000   8.5530000
  19.3520000  34.2670000   9.4540000  17.8030000  32.8010000   9.2120000
  17.4390000  31.6450000   9.2900000  16.9860000  33.7920000   8.7910000
  17.3700000  34.7230000   8.8180000  16.0260000  33.6510000   9.0990000
  21.9450000  32.8150000  11.9280000  21.3690000  32.5440000  12.7090000
  23.3150000  33.2600000  12.1810000  23.7910000  33.5740000  11.2500000
  24.1500000  32.1400000  12.7820000  24.0540000  31.8630000  13.9710000
  23.2710000  34.5020000  13.1130000  22.8210000  34.2300000  14.0650000
  22.6420000  35.2630000  12.6500000  24.6110000  35.1030000  13.3870000
  25.6470000  34.4770000  13.0920000  24.6690000  36.2430000  13.9040000
  24.9190000  31.4420000  11.9510000  24.9500000  31.7160000  10.9810000
  25.6920000  30.2910000  12.3880000  25.0020000  29.5490000  12.7910000
  26.6780000  30.6400000  13.5070000  26.9330000  29.8150000  14.3800000
  26.4310000  29.6600000  11.1990000  26.9260000  28.7430000  11.5180000
  25.7230000  29.4220000  10.4080000  27.1860000  30.3450000  10.8130000
  27.2940000  31.8130000  13.4230000  26.9980000  32.4940000  12.7360000
  28.2560000  32.2470000  14.4530000  29.0280000  31.4810000  14.5580000
  27.5850000  32.4290000  15.8090000  28.1580000  32.1130000  16.8540000
  28.9440000  33.5580000  14.0140000  29.4830000  33.4100000  13.0790000
  28.2250000  34.3720000  13.9110000  29.6700000  33.8300000  14.7820000
  26.3970000  32.9650000  15.8120000  26.0240000  33.3200000  14.9330000
  25.6380000  33.0890000  17.0580000  26.2580000  33.5770000  17.8130000
  25.2540000  31.7170000  17.6090000  25.3290000  31.4440000  18.7850000
  24.3810000  33.9150000  16.8180000  24.6910000  34.8930000  16.4430000
  23.8000000  33.4330000  16.0320000  23.4450000  34.1340000  18.0310000
  23.9860000  34.6690000  18.8130000  23.1120000  33.1710000  18.4210000
  22.2240000  34.9370000  17.6040000  22.5730000  35.8920000  17.2060000
  21.6980000  34.4000000  16.8170000  21.2680000  35.1750000  18.7710000
  21.8480000  35.2480000  19.6970000  20.6110000  34.3020000  18.8580000
  20.4660000  36.4280000  18.5750000  20.1110000  36.4730000  17.6290000
  19.6810000  36.4500000  19.2160000  21.0440000  37.2440000  18.7350000
  24.7920000  30.8500000  16.7160000  24.7260000  31.1400000  15.7450000
  24.2820000  29.5630000  17.1400000  23.6160000  29.7150000  17.9880000
  25.3660000  28.6460000  17.6510000  25.1260000  27.8670000  18.5810000
  23.4850000  28.9010000  15.9990000  24.1310000  28.8320000  15.1220000
  23.2100000  27.8870000  16.2910000  22.2210000  29.6630000  15.6290000
  22.4660000  30.6950000  15.4020000  21.5440000  29.0820000  14.4250000
  21.2110000  28.0640000  14.6250000  20.6980000  29.7040000  14.1320000
  22.2780000  29.0810000  13.6360000  21.2140000  29.6920000  16.7840000
  20.9800000  28.6830000  17.1150000  20.2960000  30.1600000  16.4430000
  21.5910000  30.2770000  17.6180000  26.5560000  28.7360000  17.0860000
  26.7010000  29.3750000  16.3090000  27.6170000  27.7850000  17.4180000
  27.1640000  26.8030000  17.3430000  28.0660000  27.9630000  18.8620000
  28.6150000  27.0310000  19.4570000  28.8110000  27.8480000  16.4430000
  28.4300000  27.9220000  15.4240000  29.5970000  26.5540000  16.5290000
  30.4860000  26.6580000  15.9100000  29.9570000  26.3760000  17.5380000
  29.7320000  29.0770000  16.6950000  29.9630000  29.2420000  17.7430000
  29.2610000  29.9640000  16.2870000  30.6740000  28.9510000  16.1610000
  28.8310000  25.3300000  16.0440000  29.5220000  24.5030000  15.9090000
  28.3400000  25.5440000  15.0950000  28.0900000  25.0160000  16.7750000
  27.8410000  29.1390000  19.4320000  27.4640000  29.9080000  18.8900000
  28.2080000  29.3480000  20.8330000  29.2670000  29.1260000  20.9530000
  27.4860000  28.4530000  21.8100000  27.9230000  28.2810000  22.9390000
  28.0030000  30.8210000  21.2130000  28.1440000  30.9340000  22.2890000
  26.9750000  31.1090000  20.9900000  28.9570000  31.7810000  20.5000000
  28.7390000  32.7950000  20.8440000  28.7480000  31.7470000  19.4300000
  30.4200000  31.4830000  20.7470000  31.2230000  31.5080000  19.7730000
  30.7760000  31.2080000  21.9100000  26.3800000  27.8420000  21.3750000
  26.0540000  28.0270000  20.4310000  25.6240000  26.9150000  22.2120000
  25.5700000  27.2960000  23.2310000  26.2430000  25.5430000  22.2690000
  25.7720000  24.7250000  23.0700000  24.1930000  26.7680000  21.6780000
  23.7330000  25.8890000  22.1300000  24.2160000  26.5780000  20.6050000
  23.2760000  27.9330000  21.9650000  23.2860000  29.0670000  21.1720000
  23.9800000  29.1390000  20.3490000  22.3870000  27.9010000  23.0280000
  22.3440000  27.0320000  23.6710000  22.4340000  30.1260000  21.4240000
  22.4580000  31.0090000  20.8050000  21.5270000  28.9520000  23.2580000
  20.8310000  28.9010000  24.0850000  21.5520000  30.0590000  22.4800000
  20.7080000  31.1140000  22.7130000  20.0900000  30.9260000  23.4140000
  27.2160000  25.2520000  21.4100000  27.5730000  25.9820000  20.8030000
  27.7470000  23.8970000  21.2300000  27.0320000  23.1670000  21.6070000
  29.0760000  23.6630000  21.9500000  29.9660000  24.5270000  21.9520000
  27.9500000  23.6160000  19.7300000  28.5630000  24.4000000  19.2850000
  28.4990000  22.6810000  19.6270000  26.6570000  23.4930000  18.9740000
  25.9650000  24.6110000  18.6370000  26.3360000  25.5800000  18.9270000
  26.1550000  22.2450000  18.5930000  26.7000000  21.3520000  18.8350000
  24.7870000  24.5350000  17.9280000  24.2540000  25.4400000  17.6750000
  24.9740000  22.1420000  17.9110000  24.5960000  21.1670000  17.6330000
  24.2680000  23.2920000  17.5760000  23.3370000  23.2520000  17.0460000
  29.2530000  22.4820000  22.4960000  28.5140000  21.7960000  22.3860000
  30.5520000  21.9750000  22.9550000  31.0240000  22.7170000  23.6010000
  31.4870000  21.6700000  21.7920000  31.0330000  21.5860000  20.6530000
  30.3530000  20.7010000  23.7220000  29.9470000  19.9270000  23.0670000
  29.6580000  20.8650000  24.5460000  31.3010000  20.3510000  24.1320000
  32.8050000  21.6090000  22.0550000  33.1510000  21.7850000  22.9840000
  33.7440000  21.1780000  21.0100000  33.6760000  21.8410000  20.1500000
  33.4600000  19.7610000  20.5090000  33.4460000  19.5220000  19.3030000
  35.1870000  21.2560000  21.5520000  35.8690000  20.7660000  20.8550000
  35.2360000  20.6960000  22.4880000  35.6560000  22.6690000  21.8240000
  34.9630000  23.1570000  22.5150000  36.6300000  22.6190000  22.3160000
  35.7890000  23.4740000  20.5540000  36.1050000  22.8670000  19.4990000
  35.5930000  24.7160000  20.6010000  33.2420000  18.8130000  21.4170000
  33.2450000  19.0630000  22.3910000  32.9060000  17.4090000  21.0710000
  33.3490000  17.1310000  20.1130000  31.3810000  17.3830000  20.9570000
  30.6550000  17.3650000  21.9580000  33.4030000  16.4100000  22.1480000
  34.4670000  16.5900000  22.3090000  32.8910000  16.5970000  23.0930000
  33.2260000  14.8870000  21.7440000  33.7750000  13.9890000  22.4420000
  32.4990000  14.4530000  20.7900000  30.8950000  17.4980000  19.7330000
  31.5310000  17.4670000  18.9520000  29.4560000  17.6340000  19.4740000
  28.9090000  17.0980000  20.2360000  29.1490000  17.0540000  18.1190000
  30.0360000  16.6380000  17.3670000  29.1120000  19.1320000  19.5290000
  29.5150000  19.5440000  20.4540000  27.6990000  19.3090000  19.5660000
  27.5020000  19.7280000  20.4250000  29.6670000  19.9360000  18.3450000
  29.2270000  19.6030000  17.4070000  30.7490000  19.8250000  18.3060000
  29.4390000  20.9900000  18.4840000  27.8450000  17.0300000  17.8030000
  27.1810000  17.4290000  18.4580000  27.3900000  16.6470000  16.4920000
  28.0930000  17.0550000  15.7690000  26.0290000  17.2680000  16.2240000
  25.3150000  17.6550000  17.1440000  27.3680000  15.1240000  16.3570000
  28.3600000  14.7520000  16.6110000  27.2110000  14.8660000  15.3110000
  26.3820000  14.3690000  17.2070000  26.7180000  13.3340000  17.2650000
  26.4000000  14.7740000  18.2200000  24.6450000  14.3620000  16.5950000
  24.8630000  13.5480000  15.0380000  25.5970000  12.7500000  15.1260000
  25.2050000  14.2690000  14.2950000  23.9130000  13.1300000  14.7050000
  25.7280000  17.3810000  14.9390000  26.4100000  17.0710000  14.2530000
  24.4320000  17.8950000  14.4580000  23.6960000  17.8280000  15.2480000
  24.0120000  17.0780000  13.2660000  24.8030000  16.8290000  12.3620000
  24.5660000  19.3530000  14.0250000  24.7710000  19.9520000  14.9130000
  25.4380000  19.4330000  13.3750000  23.3920000  19.9710000  13.3140000
  22.0840000  19.8360000  13.7780000  21.8820000  19.2600000  14.6680000
  23.5750000  20.7480000  12.1870000  24.5750000  20.8830000  11.7980000
  21.0310000  20.4630000  13.1380000  20.0250000  20.3570000  13.5220000
  22.5220000  21.4110000  11.5690000  22.6960000  22.0420000  10.7120000
  21.2660000  21.2650000  12.0430000  20.2400000  21.9570000  11.4080000
  19.4060000  21.7700000  11.8290000  22.7590000  16.6600000  13.2470000
  22.1470000  16.8580000  14.0330000  22.2270000  15.9790000  12.0580000
  22.7820000  16.3070000  11.1770000  20.7560000  16.2830000  11.8370000
  19.9330000  16.0820000  12.7150000  22.3950000  14.4650000  12.1890000
  23.4180000  14.2650000  12.5050000  21.7280000  14.0910000  12.9620000
  22.1390000  13.6900000  10.8880000  21.1100000  13.8430000  10.5890000
  22.7770000  14.0830000  10.0980000  22.3730000  12.2130000  11.0080000
  22.8200000  11.7210000  12.0450000  22.0800000  11.4950000   9.9400000
  21.7670000  11.9660000   9.0900000  22.1790000  10.5010000   9.9820000
  20.4620000  16.7640000  10.6280000  21.2200000  16.8950000   9.9770000
  19.1020000  16.6790000  10.0730000  18.3470000  16.8280000  10.8510000
  19.0160000  15.2520000   9.5370000  19.7380000  14.9050000   8.6080000
  18.9290000  17.7120000   8.9680000  19.7410000  17.6300000   8.2460000
  17.9940000  17.5260000   8.4480000  18.8760000  19.0930000   9.5450000
  17.9720000  19.3960000  10.3300000  19.8630000  19.9300000   9.2190000
  19.8700000  20.8250000   9.6930000  20.6090000  19.6470000   8.6120000
  18.2030000  14.4060000  10.1670000  17.6160000  14.7530000  10.9220000
  18.2990000  12.9910000   9.9550000  19.3220000  12.7070000  10.1890000
  18.1270000  12.4940000   8.5210000  18.6950000  11.4310000   8.2350000
  17.4110000  12.2190000  10.9210000  17.4660000  11.1550000  10.6890000
  16.3750000  12.5370000  10.7980000  17.8260000  12.4180000  12.3730000
  17.6680000  13.4580000  12.6510000  17.1770000  11.8150000  12.9910000
  19.5560000  12.0010000  12.7670000  19.4910000  10.2310000  12.6030000
  18.6820000   9.8360000  13.2170000  20.4360000   9.8000000  12.9330000
  19.3170000   9.9690000  11.5600000  17.4880000  13.1930000   7.5870000
  17.5240000  12.7430000   6.1850000  17.1780000  11.7090000   6.1150000
  18.8920000  12.8670000   5.5160000  19.0290000  12.3800000   4.3860000
  16.5260000  13.6740000   5.4900000  15.9820000  13.1570000   4.6990000
  17.0410000  14.5450000   5.0870000  15.6070000  14.1350000   6.6110000
  14.8640000  13.3900000   6.8490000  15.1140000  15.0760000   6.3730000
  16.5370000  14.3010000   7.7770000  17.0500000  15.2600000   7.7040000
  15.9820000  14.2170000   8.7120000  19.8340000  13.5510000   6.1270000
  19.6730000  13.8430000   7.0830000  21.1130000  13.9370000   5.5230000
  21.2290000  13.4200000   4.5730000  22.2540000  13.5120000   6.4300000
  22.0610000  13.2020000   7.6020000  21.1170000  15.4410000   5.3080000
  22.0830000  15.7580000   4.9170000  20.9930000  15.9160000   6.2830000
  20.0170000  15.9620000   4.3760000  19.0490000  15.5890000   4.7010000
  19.9230000  17.4560000   4.3950000  19.6870000  17.7950000   5.4020000
  20.8680000  17.8940000   4.0740000  19.1330000  17.7860000   3.7180000
  20.2600000  15.4960000   2.9820000  21.2360000  15.8310000   2.6310000
  20.1980000  14.4100000   2.9260000  19.4950000  15.9050000   2.3220000
  23.5030000  13.5180000   5.9250000  24.6140000  13.0390000   6.7630000
  24.3760000  12.0210000   7.0700000  24.9030000  13.9240000   7.9660000
  24.6760000  15.1150000   7.9530000  25.8100000  13.0190000   5.7930000
  26.3430000  13.9710000   5.8330000  26.4900000  12.1940000   6.0060000
  25.1590000  12.8700000   4.4410000  24.8900000  11.8240000   4.2810000
  25.8170000  13.2120000   3.6410000  23.9120000  13.6990000   4.5140000
  24.1350000  14.7470000   4.3070000  23.1750000  13.3090000   3.8160000
  25.4260000  13.3310000   9.0110000  25.7580000  14.0900000  10.2050000
  24.9360000  14.7420000  10.4990000  27.0250000  14.9190000  10.0530000
  27.8850000  14.6400000   9.2280000  25.9610000  12.9970000  11.2560000
  25.0100000  12.7190000  11.6920000  26.6410000  13.3110000  12.0500000
  26.5150000  11.8530000  10.4810000  27.5730000  12.0190000  10.2730000
  26.3700000  10.9070000  11.0020000  25.7210000  11.8950000   9.1660000
  24.7930000  11.3320000   9.2690000  26.3260000  11.5100000   8.3450000
  27.1350000  15.9200000  10.9280000  26.3430000  16.1350000  11.5250000
  28.3550000  16.7140000  11.1170000  29.1040000  16.4510000  10.3690000
  28.8910000  16.4200000  12.5040000  28.1660000  16.5560000  13.4700000
  28.0320000  18.1780000  10.9910000  27.2520000  18.4560000  11.7020000
  28.9200000  18.7790000  11.1810000  27.6740000  18.3840000   9.9810000
  30.1800000  16.1080000  12.5900000  30.7330000  16.1240000  11.7470000
  30.8760000  15.7850000  13.8390000  30.1620000  15.8040000  14.6650000
  31.9430000  16.8400000  14.1400000  32.7740000  17.1550000  13.2630000
  31.5130000  14.3740000  13.8150000  32.2600000  14.3120000  14.6080000
  32.0260000  14.2190000  12.8650000  30.4970000  13.2910000  14.0390000
  29.8630000  12.6710000  12.9850000  30.0880000  12.9830000  11.9730000
  30.1720000  12.8980000  15.3200000  30.6440000  13.3840000  16.1680000
  28.9100000  11.6910000  13.1970000  28.4140000  11.2170000  12.3670000
  29.2110000  11.9050000  15.5450000  28.9620000  11.6290000  16.5590000
  28.5780000  11.3210000  14.4770000  27.6400000  10.3330000  14.7720000
  27.5350000  10.2430000  15.7220000  31.8890000  17.3620000  15.3600000
  31.1690000  17.0480000  16.0040000  32.8360000  18.3660000  15.8230000
  33.7920000  18.2750000  15.3070000  33.0050000  18.2310000  16.8920000
  32.2740000  19.7580000  15.5820000  31.5380000  19.9670000  14.5940000
  32.6640000  20.7200000  16.4300000  33.2430000  20.4680000  17.2280000
  32.0620000  22.0140000  16.4060000  30.9820000  21.8830000  16.4880000
  32.2760000  22.7580000  15.0930000  31.3590000  23.4210000  14.5980000
  32.5160000  22.8390000  17.6190000  33.5820000  23.0560000  17.5120000
  32.3940000  22.1910000  18.4850000  31.8030000  24.0610000  17.8830000
  30.7390000  23.8540000  18.0060000  31.9550000  24.7720000  17.0700000
  32.3690000  24.6290000  19.1850000  32.2470000  23.8710000  19.9600000
  33.4490000  24.7640000  19.0710000  31.7990000  25.8470000  19.7130000
  31.0980000  25.7510000  20.4350000  32.1810000  27.0730000  19.3770000
  33.0420000  27.2660000  18.3890000  33.2600000  28.1950000  18.0760000
  33.4830000  26.4740000  17.9450000  31.6590000  28.1090000  20.0070000
  31.8920000  29.0660000  19.7510000  30.9930000  27.9600000  20.7390000
  33.4540000  22.6610000  14.4880000  34.2260000  22.2590000  14.9950000
  33.7170000  23.3330000  13.2360000  33.4600000  24.3890000  13.3610000
  32.7970000  22.8210000  12.1100000  32.2380000  23.6170000  11.3460000
  35.1780000  23.2790000  12.8790000  35.2920000  23.5980000  11.8420000
  35.5340000  22.2500000  12.9570000  36.0330000  24.1860000  13.7410000
  35.5450000  25.0290000  14.5170000  37.2500000  24.0940000  13.6610000
  32.6430000  21.5090000  11.9980000  33.0940000  20.9020000  12.6660000
  31.7710000  20.9300000  10.9710000  32.0880000  21.3090000   9.9970000
  30.3300000  21.3510000  11.1710000  29.6010000  21.6150000  10.2030000
  31.8850000  19.4270000  10.9490000  31.2640000  19.0220000  10.1490000
  31.5550000  19.0160000  11.9030000  32.9210000  19.1350000  10.7710000
  29.9000000  21.4290000  12.4250000  30.5340000  21.1800000  13.1790000
  28.5460000  21.8830000  12.7400000  27.8350000  21.2790000  12.1770000
  28.3640000  23.3330000  12.2600000  27.4020000  23.6520000  11.6050000
  28.2200000  21.7320000  14.2240000  28.9970000  22.2220000  14.8100000
  26.9320000  22.4190000  14.5650000  26.1470000  22.1060000  13.8760000
  26.6280000  22.1740000  15.5820000  27.0490000  23.5010000  14.5080000
  28.1980000  20.2860000  14.6420000  29.1960000  19.9330000  14.8610000
  27.5980000  20.1520000  15.5420000  27.7770000  19.6650000  13.8530000
  29.3320000  24.2010000  12.6100000  30.1230000  23.9010000  13.1760000
  29.2490000  25.5830000  12.1960000  28.3240000  26.0020000  12.5940000
  29.1920000  25.7340000  10.6680000  28.4080000  26.5200000  10.1520000
  30.4260000  26.4000000  12.7690000  30.5440000  26.1530000  13.8190000
  31.3470000  26.1410000  12.2460000  30.1410000  27.8980000  12.6190000
  30.0740000  28.1390000  11.5560000  29.1690000  28.1120000  13.0690000
  31.1760000  28.8100000  13.2460000  32.1580000  28.2930000  13.8190000
  30.9800000  30.0480000  13.1450000  30.0250000  24.9790000   9.9720000
  30.6950000  24.4040000  10.4780000  30.0840000  25.0270000   8.5010000
  30.2170000  26.0650000   8.1930000  28.7820000  24.5530000   7.8850000
  28.3220000  25.0950000   6.8860000  31.2540000  24.2210000   7.9730000
  31.1950000  23.2210000   8.4070000  31.1780000  24.1310000   6.8880000
  32.5900000  24.8560000   8.3160000  32.7700000  25.7040000   7.6560000
  32.5820000  25.2250000   9.3410000  33.7220000  23.8740000   8.1820000
  33.5640000  22.8030000   7.5800000  34.8770000  24.2490000   8.6890000
  35.6280000  23.5850000   8.6400000  34.9390000  25.0810000   9.2490000
  28.1600000  23.5690000   8.5200000  28.6040000  23.1560000   9.3340000
  26.8510000  23.0720000   8.0710000  26.9080000  22.8290000   7.0090000
  25.7670000  24.1290000   8.2370000  25.0280000  24.4210000   7.3170000
  26.4620000  21.8000000   8.8170000  26.4770000  21.9910000   9.8900000
  27.4010000  20.7860000   8.5100000  28.2380000  21.0170000   8.9490000
  25.0610000  21.3240000   8.4290000  24.7120000  20.6320000   9.1930000
  24.3250000  22.1190000   8.3500000  25.1080000  20.7910000   7.4800000
  25.7330000  24.7460000   9.4110000  26.4030000  24.4970000  10.1350000
  24.7870000  25.7980000   9.6510000  23.7850000  25.4250000   9.4410000
  25.0070000  26.9700000   8.6780000  24.0540000  27.5590000   8.1650000
  24.8510000  26.2430000  11.0880000  24.2940000  27.1750000  11.1910000
  25.8940000  26.4560000  11.3300000  24.2920000  25.2460000  12.1130000
  24.7780000  24.2860000  11.9440000  24.6450000  25.6740000  13.5490000
  25.5490000  26.2830000  13.5670000  24.8200000  24.7840000  14.1530000
  23.8260000  26.2420000  13.9870000  22.7740000  25.0270000  11.9590000
  22.4260000  24.3560000  12.7440000  22.5530000  24.5530000  11.0040000
  22.2420000  25.9760000  12.0240000  26.2540000  27.3580000   8.4550000
  27.0280000  26.9220000   8.9490000  26.5110000  28.4740000   7.5410000
  25.9750000  29.3560000   7.8960000  25.9800000  28.1450000   6.1390000
  25.4430000  29.0470000   5.4700000  27.9920000  28.8000000   7.4950000
  28.1610000  29.6540000   6.8380000  28.3460000  29.0470000   8.4970000
  28.5550000  27.9440000   7.1210000  26.1730000  26.9180000   5.6830000
  26.7000000  26.2560000   6.2430000  25.6060000  26.4940000   4.4170000
  25.9760000  27.1430000   3.6220000  25.9370000  25.4770000   4.2070000
  24.0880000  26.5130000   4.3820000  23.4520000  27.0190000   3.4310000
  23.4950000  25.9600000   5.4120000  24.0670000  25.5470000   6.1420000
  22.0600000  25.9500000   5.5590000  21.6410000  25.3170000   4.7760000
  21.4360000  27.3210000   5.3960000  20.4790000  27.5130000   4.6580000
  21.6530000  25.3640000   6.9400000  21.9040000  24.3020000   6.9570000
  22.2650000  25.8440000   7.7000000  20.1830000  25.5530000   7.3800000
  19.9040000  26.6000000   7.2720000  19.3370000  24.7880000   6.4720000
  18.3160000  24.9320000   6.8020000  19.5610000  23.7250000   6.5510000
  19.4390000  25.1190000   5.4400000  19.9560000  25.2360000   8.8520000
  20.4020000  24.2760000   9.1040000  20.4090000  26.0160000   9.4630000
  18.8900000  25.2020000   9.0720000  22.0150000  28.2930000   6.1010000
  22.7820000  28.0640000   6.7260000  21.5060000  29.6480000   6.0950000
  20.4210000  29.5950000   6.0980000  21.8500000  30.4140000   4.8270000
  21.3800000  31.5310000   4.6500000  21.9260000  30.4020000   7.3550000
  21.5790000  31.4340000   7.2850000  23.0160000  30.4220000   7.4080000
  21.3540000  29.8180000   8.6160000  22.1780000  29.5460000   9.6710000
  23.2380000  29.7320000   9.5870000  20.0030000  29.5540000   8.7490000
  19.3220000  29.7890000   7.9420000  21.6480000  29.0200000  10.8830000
  22.3260000  28.7620000  11.6710000  19.4920000  29.0260000   9.9180000
  18.4310000  28.8550000  10.0070000  20.3270000  28.7640000  10.9780000
  19.9190000  28.3510000  11.8900000  22.6460000  29.8220000   3.9370000
  23.0500000  28.9170000   4.1520000  22.8510000  30.3890000   2.6110000
  22.9090000  31.4760000   2.6820000  21.6680000  30.0580000   1.7030000
  21.3760000  30.7800000   0.7450000  24.1690000  29.8830000   2.0430000
  24.1590000  28.8000000   1.9400000  25.2300000  30.2680000   2.9320000
  24.8600000  30.4110000   3.8040000  24.4730000  30.5120000   0.6850000
  24.0730000  29.8760000  -0.1030000  25.5500000  30.6000000   0.5460000
  24.0300000  31.5040000   0.6050000  21.0130000  28.9370000   1.9880000
  21.3010000  28.3650000   2.7740000  19.9160000  28.4950000   1.1110000
  19.9100000  29.0940000   0.2010000  18.5370000  28.6970000   1.7130000
  17.5690000  28.7740000   0.9580000  20.0790000  27.0260000   0.6290000
  19.2510000  26.7910000  -0.0420000  21.3450000  26.8570000  -0.1100000
  22.0220000  26.1260000   0.3370000  21.1200000  26.5220000  -1.1230000
  21.8940000  27.7950000  -0.2000000  20.0850000  26.0630000   1.6870000
  19.1780000  26.1460000   2.2820000  20.1150000  25.0540000   1.2730000
  20.9440000  26.2060000   2.3450000  18.4320000  28.7460000   3.0550000
  19.2370000  28.6460000   3.6670000  17.1130000  28.9490000   3.5970000
  16.5020000  29.4750000   2.8690000  17.1320000  29.8310000   4.8160000
  18.1720000  30.0480000   5.4320000  16.3780000  27.6990000   3.9650000
  16.3520000  27.0860000   3.0680000  15.3480000  27.9220000   4.2430000
  16.9810000  27.0280000   5.0080000  16.8390000  27.5700000   5.9440000
  18.0500000  26.9410000   4.8240000  16.3040000  25.2510000   5.2480000
  16.5220000  24.5950000   3.7920000  16.4180000  23.5110000   3.8530000
  15.7880000  24.9670000   3.0820000  17.5230000  24.8330000   3.4350000
  15.9770000  30.4020000   5.0960000  15.1780000  30.1890000   4.5070000
  15.7470000  31.1730000   6.3160000  16.6790000  31.3340000   6.8570000
  14.7720000  30.4100000   7.2000000  13.7530000  29.9120000   6.7130000
  15.1460000  32.5110000   5.9620000  14.2420000  32.3560000   5.3710000
  15.8610000  33.0860000   5.3730000  14.8000000  33.2490000   7.1450000
  15.6230000  33.5250000   7.5580000  15.0510000  30.3620000   8.4840000
  15.8950000  30.8140000   8.8220000  14.0950000  29.8860000   9.4730000
  13.3910000  29.1800000   9.0300000  13.3410000  31.1510000   9.9330000
  13.8810000  32.0200000  10.6150000  14.7730000  29.2250000  10.6680000
  15.4600000  29.9410000  11.1240000  15.5740000  27.9990000  10.2220000
  16.2360000  28.2700000   9.4000000  14.8880000  27.2310000   9.8670000
  13.7180000  28.8280000  11.7000000  13.0660000  28.0510000  11.3000000
  14.1970000  28.4510000  12.6020000  13.1060000  29.6750000  12.0030000
  16.4390000  27.3840000  11.3130000  15.8110000  26.8880000  12.0540000
  17.0980000  26.6360000  10.8710000  17.0420000  28.1530000  11.7950000
  12.1080000  31.2630000   9.4940000  11.7160000  30.5210000   8.9240000
  11.3240000  32.4650000   9.7350000  11.9750000  33.3380000   9.8170000
  10.5240000  32.3800000  11.0070000  10.1220000  33.4280000  11.5050000
  10.3690000  32.6870000   8.5890000   9.6080000  33.4090000   8.8910000
   9.8570000  31.7510000   8.3550000  11.0290000  33.2450000   7.3180000
  12.1610000  33.7990000   7.3690000  10.4280000  33.1740000   6.2290000
  10.2710000  31.1880000  11.5510000  10.6270000  30.3560000  11.1000000
   9.5230000  31.0580000  12.7860000   9.9100000  31.7670000  13.5210000
   9.7240000  29.6620000  13.3250000   9.9600000  28.7050000  12.5720000
   8.0300000  31.3170000  12.5810000   7.4280000  30.6460000  13.1950000
   7.7580000  31.1740000  11.5360000   7.8020000  32.3470000  12.8580000
   9.6390000  29.5250000  14.6330000   9.4570000  30.3350000  15.2100000
   9.6950000  28.2440000  15.3060000   9.5200000  27.4220000  14.6110000
   8.6510000  28.2110000  16.3910000   8.5320000  29.1880000  17.1750000
  11.0250000  28.0380000  15.9860000  11.1850000  28.8360000  16.7130000
  11.0420000  26.7140000  16.7380000  10.7020000  25.9070000  16.0940000
  10.4130000  26.7560000  17.6250000  12.0550000  26.4880000  17.0680000
  12.2020000  28.0800000  15.0090000  12.0680000  27.3250000  14.2330000
  12.2830000  29.0640000  14.5510000  13.1290000  27.8840000  15.5460000
   7.8390000  27.1660000  16.4630000   7.9390000  26.4210000  15.7760000
   6.8870000  26.9920000  17.5480000   7.0830000  27.7250000  18.3310000
   7.0990000  25.6160000  18.1250000   7.0320000  24.6120000  17.3930000
   5.4430000  27.1430000  17.1290000   5.3190000  28.1340000  16.6920000
   5.1720000  26.3860000  16.3910000   4.5450000  27.0170000  18.3740000
   4.5610000  25.9800000  18.7160000   4.9700000  27.6330000  19.1710000
   3.1140000  27.4270000  18.1930000   2.7570000  27.9190000  17.0990000
   2.3330000  27.2120000  19.1730000   7.3580000  25.5550000  19.4300000
   7.3500000  26.4080000  19.9680000   7.5570000  24.3120000  20.1300000
   7.7650000  23.5180000  19.4150000   6.2840000  23.9420000  20.8730000
   5.8710000  24.6460000  21.8020000   8.7520000  24.3630000  21.0830000
   8.6050000  25.1640000  21.8090000   9.9770000  24.6210000  20.3430000
  10.3640000  25.4220000  20.6990000   8.9770000  23.0690000  21.8200000
   9.9080000  23.1240000  22.3840000   9.0310000  22.2400000  21.1140000
   8.1640000  22.8890000  22.5230000   5.6010000  22.9040000  20.4320000
   5.9820000  22.3610000  19.6650000   4.3690000  22.4460000  21.0460000
   3.7420000  23.3110000  21.2730000   4.6070000  21.7070000  22.3490000
   3.8870000  21.9090000  23.3320000   3.5900000  21.5200000  20.1180000
   2.6320000  21.2910000  20.5860000   4.1340000  20.5790000  20.0200000
   3.3250000  22.0680000  18.7580000   3.7300000  21.3340000  17.6230000
   4.2220000  20.3810000  17.7510000   2.6820000  23.2590000  18.5470000
   2.3380000  23.8490000  19.3870000   3.5230000  21.8160000  16.3600000
   3.8080000  21.2020000  15.5240000   2.5020000  23.7620000  17.2420000
   2.0220000  24.7230000  17.1030000   2.8990000  23.0210000  16.1540000
   2.7270000  23.3940000  15.1550000   5.6010000  20.8340000  22.3560000
   6.1520000  20.7370000  21.5120000   5.9120000  19.9650000  23.4670000
   5.4240000  20.3330000  24.3680000   7.4100000  19.9370000  23.7070000
   8.2010000  19.8970000  22.7540000   5.4500000  18.5300000  23.2200000
   5.6280000  17.9540000  24.1260000   6.0480000  18.0870000  22.4230000
   4.0040000  18.4150000  22.8700000   3.5540000  17.6140000  21.8430000
   4.1330000  17.0770000  21.1880000   2.8920000  18.9070000  23.4780000
   2.8830000  19.5580000  24.3410000   2.2230000  17.6600000  21.8150000
   1.5930000  17.1280000  21.1180000   1.7930000  18.4270000  22.8080000
   7.8180000  19.9720000  24.9720000   7.1370000  20.0650000  25.7200000
   9.2130000  19.8000000  25.3530000   9.7120000  19.2930000  24.5410000
   9.2300000  18.8980000  26.5640000   8.3660000  18.9950000  27.4580000
   9.9500000  21.1510000  25.6050000   9.8070000  21.7620000  24.7120000
  11.4400000  20.9400000  25.7960000  11.6160000  20.4310000  26.7450000
  11.8110000  20.2950000  25.0030000   9.3700000  21.9220000  26.8070000
   8.2840000  21.8470000  26.8300000   9.7400000  21.5080000  27.7490000
   9.6430000  22.9740000  26.7500000  12.2700000  22.1860000  25.7710000
  12.1860000  22.6680000  24.7970000  13.3140000  21.9330000  25.9480000
  11.9460000  22.8790000  26.5460000  10.1640000  17.9850000  26.6120000
  10.8430000  17.9570000  25.8580000  10.3840000  17.1140000  27.7550000
  10.1690000  17.6560000  28.6780000   9.7430000  16.2370000  27.6870000
  11.8160000  16.6730000  27.8010000  12.6290000  16.9870000  26.9270000
  12.1660000  15.9540000  28.8500000  11.5030000  15.7430000  29.5920000
  13.5590000  15.5480000  29.0280000  13.9210000  15.1840000  28.0700000
  13.6790000  14.4260000  30.0180000  12.8410000  14.2840000  30.9130000
  14.4350000  16.7050000  29.4750000  15.4700000  16.3730000  29.5550000
  14.3930000  17.5120000  28.7430000  14.0270000  17.2010000  30.7320000
  13.2740000  17.8410000  30.5820000  14.7590000  13.6840000  29.8960000
  15.3880000  13.8940000  29.1250000  15.2130000  12.7050000  30.9020000
  15.1090000  13.1210000  31.9050000  16.6360000  12.3420000  30.6390000
  17.0440000  12.2020000  29.4690000  14.4430000  11.3450000  30.8180000
  14.5420000  10.9370000  29.8130000  14.8960000  10.6420000  31.5170000
  13.0900000  11.4340000  31.1600000  12.8400000  12.3680000  31.2820000
  17.3580000  12.0580000  31.7190000  16.9180000  12.0540000  32.6280000
  18.7080000  11.4800000  31.5970000  19.1740000  11.4870000  32.5850000
  19.6690000  12.1890000  30.6430000  20.4690000  11.5230000  29.9770000
  18.6690000  10.0320000  31.1200000  18.7060000  10.0080000  30.0350000
  19.5170000   9.4750000  31.5210000  17.3920000   9.3240000  31.4820000
  17.1000000   9.1000000  32.6330000  16.6270000   8.9420000  30.4760000
  16.8590000   9.1400000  29.5210000  15.8800000   8.2880000  30.6970000
  19.6440000  13.5110000  30.5710000  18.9940000  14.0090000  31.1570000
  20.5760000  14.2860000  29.7870000  21.5370000  13.7730000  29.7390000
  20.7370000  15.2450000  30.2820000  20.1290000  14.5840000  28.3590000
  20.8620000  15.2280000  27.6450000  18.9070000  14.1200000  28.0120000
  18.3640000  13.5640000  28.6610000  18.3740000  14.3950000  26.6650000
  19.0960000  14.9650000  26.0860000  17.0880000  15.2090000  26.7840000
  16.2140000  14.9430000  27.6360000  18.0820000  13.0860000  25.9200000
  17.5870000  13.3840000  24.9970000  17.3330000  12.5220000  26.4800000
  19.2830000  12.2050000  25.6060000  20.2010000  12.7770000  25.7270000
  19.3020000  11.0160000  26.5420000  18.4340000  10.3770000  26.3870000
  20.2130000  10.4370000  26.3860000  19.3010000  11.3780000  27.5700000
  19.2040000  11.6620000  24.2140000  18.9320000  10.6150000  24.2070000
  20.1920000  11.7330000  23.7810000  18.5360000  12.2170000  23.5820000
  16.9550000  16.1910000  25.9050000  17.7260000  16.3480000  25.2630000
  15.7990000  17.0360000  25.7780000  15.0780000  16.8150000  26.5620000
  15.1480000  16.7630000  24.4130000  15.8470000  16.6400000  23.4350000
  16.1990000  18.5320000  25.8830000  16.9060000  18.7540000  25.0890000
  15.0070000  19.4300000  25.6740000  14.6110000  19.3280000  24.6650000
  15.2970000  20.4700000  25.8050000  14.2260000  19.1850000  26.3940000
  16.8660000  18.8610000  27.1910000  16.8440000  18.0140000  27.8760000
  17.9050000  19.1230000  27.0060000  16.3850000  19.7000000  27.6950000
  13.8240000  16.7030000  24.3760000  13.3170000  16.8610000  25.2420000
  13.0400000  16.4260000  23.1680000  13.7160000  16.3070000  22.3310000
  12.1050000  17.5850000  22.9140000  11.4680000  18.0740000  23.8510000
  12.2480000  15.1210000  23.3380000  11.7470000  14.8930000  22.3960000
  11.4740000  15.2750000  24.0920000  13.0830000  13.9400000  23.7480000
  13.2850000  13.6200000  25.0770000  12.8240000  14.2440000  25.8310000
  13.6880000  13.1160000  22.7980000  13.5570000  13.3310000  21.7460000
  14.0670000  12.5550000  25.4870000  14.2090000  12.3550000  26.5380000
  14.4670000  12.0280000  23.1970000  14.9310000  11.3920000  22.4570000
  14.6760000  11.7530000  24.5350000  15.4210000  10.6590000  24.8710000
  15.2700000  10.3920000  25.7760000  12.0020000  18.0030000  21.6280000
  12.5590000  17.5350000  20.9180000  11.1210000  19.1020000  21.2000000
  10.4810000  19.3990000  22.0280000  10.2350000  18.6710000  20.0400000
  10.7830000  18.2750000  18.9850000  11.8750000  20.3660000  20.7120000
  11.1490000  21.1220000  20.4110000  12.7100000  20.0610000  19.5980000
  13.5150000  20.5680000  19.7370000  12.7660000  20.9530000  21.7840000
  13.2370000  21.8650000  21.4150000  12.1610000  21.2000000  22.6560000
  13.5330000  20.2370000  22.0820000   8.9230000  18.7850000  20.1780000
   8.5510000  19.1410000  21.0550000   7.9970000  18.5730000  19.0680000
   8.4990000  18.0410000  18.2580000   7.5880000  19.9440000  18.5720000
   7.0200000  20.7200000  19.3670000   6.7880000  17.7510000  19.5050000
   7.1430000  16.8920000  20.0770000   6.1410000  18.3450000  20.1510000
   5.9880000  17.2400000  18.3160000   5.4900000  18.0910000  17.8510000
   6.6870000  16.8280000  17.5840000   4.9400000  16.1890000  18.6240000
   4.5290000  16.0620000  19.7980000   4.5500000  15.4610000  17.6620000
   7.9080000  20.2470000  17.3210000   8.3260000  19.5380000  16.7190000
   7.8220000  21.6070000  16.8380000   7.0090000  22.1000000  17.3750000
   7.4180000  21.7100000  15.4080000   7.3470000  20.7060000  14.6770000
   9.0680000  22.3810000  17.1600000   8.9210000  23.4420000  17.0230000
   9.2780000  22.2300000  18.2210000  10.1890000  22.1180000  16.4580000
  10.3440000  21.0410000  16.3710000  10.0960000  22.5400000  15.4550000
  11.5000000  22.7670000  17.2380000  11.8120000  22.1400000  18.0730000
  11.2640000  23.7720000  17.5950000  12.4620000  22.8540000  16.2030000
  12.2800000  23.5450000  15.4670000  13.4590000  22.0080000  15.9770000
  13.7860000  21.0280000  16.8230000  13.1490000  20.7850000  17.5620000
  14.4780000  20.3440000  16.4900000  14.2070000  22.2100000  14.9030000
  14.9650000  21.5690000  14.6460000  13.9340000  22.9500000  14.2490000
   7.1570000  22.9400000  14.9880000   7.2090000  23.6950000  15.6670000
   7.0940000  23.2940000  13.5730000   7.4290000  22.4530000  12.9810000
   8.0650000  24.4610000  13.3590000   8.0690000  25.4200000  14.1310000
   5.6760000  23.6790000  13.1230000   5.2670000  24.3570000  13.8710000
   5.6760000  24.3900000  11.8040000   6.2250000  23.8070000  11.0630000
   4.6520000  24.5290000  11.4640000   6.1310000  25.3760000  11.8990000
   4.7730000  22.4830000  13.0480000   4.9260000  21.8560000  13.9170000
   5.0190000  21.8940000  12.1640000   3.7320000  22.8000000  12.9970000
   8.8870000  24.3220000  12.3130000   8.8490000  23.4800000  11.7480000
   9.7400000  25.4090000  11.8940000   9.6890000  26.2420000  12.5940000
   9.2590000  25.8660000  10.5310000   9.0260000  25.0580000   9.6320000
  11.1930000  25.0000000  11.7610000  11.2720000  24.1590000  11.0690000
  11.7460000  25.8420000  11.3410000  11.8600000  24.6210000  13.0620000
  11.2120000  24.5450000  14.1140000  13.1020000  24.3620000  13.0740000
   9.0790000  27.1820000  10.3620000   9.3470000  27.8070000  11.1160000
   8.7040000  27.7440000   9.0560000   8.1220000  27.0200000   8.4860000
  10.0010000  28.0590000   8.2970000  10.7920000  28.8660000   8.7500000
   7.8660000  29.0180000   9.2190000   8.4410000  29.7630000   9.7680000
   7.5310000  29.5840000   7.8530000   6.9200000  30.4790000   7.9690000
   8.4340000  29.8750000   7.3160000   6.9780000  28.8490000   7.2660000
   6.5990000  28.7300000   9.9930000   6.8650000  28.4180000  10.9960000
   5.9910000  29.6310000  10.0520000   6.0410000  27.9320000   9.5110000
  10.1750000  27.3700000   7.1720000   9.4680000  26.7010000   6.8820000
  11.4010000  27.5070000   6.3920000  12.1500000  28.1000000   6.9150000
  11.0900000  28.1400000   5.0440000  10.1190000  27.7660000   4.3720000
  11.9650000  26.0900000   6.1160000  11.1210000  25.4140000   5.9620000
  12.4870000  26.1110000   5.1580000  12.9080000  25.4230000   7.1220000
  13.0260000  24.3890000   6.7970000  14.2570000  26.0310000   7.1100000
  14.9950000  25.3020000   7.4430000  14.2760000  26.8590000   7.8130000
  14.4180000  26.5160000   6.1560000  12.3700000  25.3960000   8.5390000
  12.2480000  26.4020000   8.9330000  11.4090000  24.8870000   8.5500000
  13.0550000  24.8470000   9.1840000  11.9280000  29.0750000   4.6440000
  12.6530000  29.3790000   5.2910000  11.7780000  29.7670000   3.3490000
  10.9330000  29.3590000   2.7970000  13.0300000  29.5370000   2.5160000
  14.1310000  29.8070000   2.9710000  11.5020000  31.2420000   3.5800000
  10.5710000  31.3330000   4.1410000  12.3000000  31.6470000   4.2050000
  11.3990000  32.0830000   2.2840000  12.3970000  32.2190000   1.8650000
  10.7900000  31.5490000   1.5530000  10.7510000  33.4650000   2.5300000
   9.6890000  33.3220000   2.7450000  10.8390000  34.0880000   1.6390000
  11.3870000  34.0700000   3.6740000  11.0110000  33.8340000   4.6040000
  12.5300000  34.7550000   3.6700000  13.1340000  35.1050000   2.5250000
  13.9970000  35.6130000   2.5480000  12.6780000  34.8840000   1.6590000
  13.0640000  35.1030000   4.8130000  13.9200000  35.6080000   4.8820000
  12.6700000  34.7010000   5.6850000  12.8360000  29.0210000   1.3150000
  11.8850000  28.8650000   0.9960000  13.9420000  28.7040000   0.4050000
  14.7980000  28.3350000   0.9740000  14.3330000  29.9840000  -0.3140000
  13.5440000  30.5390000  -1.0930000  13.5350000  27.6450000  -0.5890000
  13.2900000  26.7240000  -0.0610000  12.6590000  27.9770000  -1.1440000
  14.3480000  27.4470000  -1.2850000  15.5390000  30.4640000  -0.0540000
  16.1790000  29.9390000   0.5340000  15.9740000  31.7200000  -0.6470000
  15.2230000  32.4670000  -0.3890000  15.9830000  31.7270000  -2.1740000
  15.5880000  32.7620000  -2.7580000  17.3090000  32.2040000  -0.0350000
  18.0940000  31.4970000  -0.3070000  17.5610000  33.1670000  -0.4820000
  17.2970000  32.3560000   1.4750000  17.0930000  31.3870000   1.9240000
  18.6600000  32.7750000   1.9330000  18.9180000  33.7530000   1.5290000
  18.6940000  32.8130000   3.0230000  19.4000000  32.0490000   1.6060000
  16.2360000  33.3200000   1.9690000  16.3370000  33.4410000   3.0470000
  16.3620000  34.2870000   1.4820000  15.2430000  32.9220000   1.7640000
  16.3580000  30.6250000  -2.8440000  16.3830000  30.6350000  -4.3110000
  17.0350000  31.4390000  -4.6560000  15.0140000  30.8000000  -4.9480000
  14.9050000  31.2700000  -6.0830000  17.0060000  29.2660000  -4.6740000
  17.6730000  29.3550000  -5.5330000  16.2140000  28.5520000  -4.9070000
  17.7200000  28.7920000  -3.4970000  17.7680000  27.7150000  -3.4290000
  18.7290000  29.2090000  -3.4990000  16.9490000  29.3820000  -2.3210000
  16.1600000  28.6930000  -2.0230000  17.6320000  29.5710000  -1.4940000
  13.9590000  30.3610000  -4.2750000  14.0730000  29.9820000  -3.3460000
  12.6310000  30.3330000  -4.8920000  12.6860000  30.6350000  -5.9370000
  11.6000000  31.2570000  -4.2390000  10.5310000  31.4860000  -4.8190000
  12.0780000  28.8880000  -4.8720000  11.1480000  28.8540000  -5.4410000
  11.8150000  28.5370000  -3.5160000  11.8020000  27.5770000  -3.5010000
  13.0770000  27.8790000  -5.4840000  13.6930000  28.3640000  -6.2410000
  12.5320000  27.0740000  -5.9670000  13.7210000  27.4550000  -4.7140000
  11.8830000  31.7080000  -3.0360000  12.7480000  31.4260000  -2.5910000
  10.9540000  32.5220000  -2.2960000  10.5490000  33.2980000  -2.9470000
  11.4910000  33.0030000  -1.4800000   9.7930000  31.7550000  -1.6980000
   8.8820000  32.3610000  -1.1530000   9.7850000  30.4330000  -1.7990000
  10.5620000  29.9700000  -2.2590000   8.6700000  29.6320000  -1.2920000
   7.7670000  30.2430000  -1.2520000   8.9530000  29.1320000   0.1280000
  10.1020000  28.8990000   0.4790000   8.4060000  28.4500000  -2.2420000
   9.3230000  27.8670000  -2.3260000   7.6410000  27.8120000  -1.7960000
   7.9200000  28.8490000  -3.6410000   8.6630000  29.4910000  -4.1160000
   6.9960000  29.4190000  -3.5260000   7.6640000  27.6800000  -4.5270000
   8.6140000  27.2390000  -4.8390000   7.1080000  26.9280000  -3.9640000
   6.8470000  28.0740000  -5.7520000   6.0000000  28.6810000  -5.4220000
   7.4780000  28.6900000  -6.4000000   6.3490000  26.8840000  -6.5080000
   5.8200000  27.1260000  -7.3310000   7.1570000  26.3290000  -6.8370000
   5.8340000  26.2450000  -5.9180000   7.8940000  29.0010000   0.9000000
   6.9800000  29.1930000   0.5240000   7.9980000  28.5770000   2.2890000
   9.0390000  28.4070000   2.5170000   7.2510000  27.2840000   2.5460000
   6.3340000  26.9190000   1.8030000   7.4550000  29.6530000   3.2480000
   6.4010000  29.8320000   3.0320000   7.5430000  29.2980000   4.2760000
   8.1600000  30.8620000   3.1310000   8.5030000  31.1050000   4.0000000
   7.5790000  26.6560000   3.6590000   8.3710000  27.0050000   4.1930000
   6.9520000  25.4150000   4.1120000   5.9120000  25.3920000   3.7830000
   6.9980000  25.3410000   5.6080000   8.0120000  25.6390000   6.2360000
   7.7130000  24.2240000   3.4810000   7.7410000  24.3630000   2.4000000
   8.7420000  24.2260000   3.8440000   7.0740000  22.8680000   3.7540000
   5.8580000  22.5270000   3.2090000   5.3620000  23.2200000   2.5430000
   7.6610000  21.9480000   4.6020000   8.6060000  22.1890000   5.0690000
   5.2900000  21.2880000   3.4380000   4.3550000  21.0130000   2.9740000
   7.0810000  20.7050000   4.8560000   7.5600000  19.9910000   5.5050000
   5.8780000  20.4050000   4.2900000   5.2780000  19.1610000   4.5430000
   5.8570000  18.4780000   4.8970000   5.9160000  24.8280000   6.1930000
   5.1660000  24.5010000   5.6050000   5.8110000  24.5840000   7.6170000
   6.4800000  25.2500000   8.1690000   6.2420000  23.1380000   7.8800000
   5.5150000  22.2050000   7.5600000   4.3920000  24.7910000   8.1070000
   4.3110000  24.3940000   9.1170000   3.6920000  24.2490000   7.4710000
   3.9980000  26.2690000   8.1390000   4.6580000  27.1020000   7.5870000
   2.9260000  26.5750000   8.8470000   2.5840000  27.5050000   8.6860000
   2.3480000  25.8260000   9.1900000   7.4540000  22.9800000   8.4000000
   8.0030000  23.8010000   8.6480000   8.0750000  21.6730000   8.5960000
   7.6460000  20.9890000   7.8660000   7.8480000  21.1140000  10.0000000
   8.2540000  21.7310000  10.9920000   9.5770000  21.8160000   8.3440000
   9.7160000  22.3130000   7.3820000   9.9980000  22.4720000   9.1090000
  10.3800000  20.5200000   8.3180000  10.2700000  20.0390000   9.2870000
   9.8720000  19.5290000   7.2760000   8.8070000  19.3460000   7.3530000
  10.3710000  18.5770000   7.4160000  10.1110000  19.8910000   6.2840000
  11.8600000  20.8370000   8.1370000  12.2030000  21.5230000   8.9090000
  12.4430000  19.9200000   8.2030000  12.0290000  21.2990000   7.1650000
   7.1710000  19.9680000  10.0630000   6.8060000  19.5630000   9.2130000
   6.9310000  19.2690000  11.3180000   6.6860000  19.9870000  12.1020000
   8.1860000  18.4950000  11.7280000   8.6520000  17.6360000  10.9670000
   5.7670000  18.3060000  11.1530000   5.6150000  17.7600000  12.0850000
   6.0000000  17.5880000  10.3640000   4.5570000  18.9860000  10.8190000
   4.2890000  19.5280000  11.5610000   8.6810000  18.7480000  12.9320000
   8.2170000  19.4280000  13.5300000   9.9410000  18.2080000  13.3970000
  10.2770000  17.4040000  12.7430000   9.8120000  17.6670000  14.8050000
   9.1730000  18.2940000  15.6730000  11.0380000  19.3260000  13.4260000
  10.6630000  20.1280000  14.0650000  11.2660000  19.9030000  12.0480000
  10.3120000  20.0780000  11.5620000  11.8300000  19.2020000  11.4320000
  12.3380000  18.8300000  14.0270000  13.1020000  19.6020000  13.9540000
  12.6850000  17.9430000  13.4960000  12.2250000  18.6080000  15.0870000
  11.9600000  21.2440000  12.0510000  11.8230000  21.7330000  11.0900000
  11.5300000  21.8820000  12.8210000  13.0270000  21.1240000  12.2340000
  10.4430000  16.5350000  15.0620000  10.9220000  16.0670000  14.2980000
  10.7120000  16.0650000  16.4110000  10.3280000  16.7880000  17.1260000
  12.2130000  16.0140000  16.5260000  12.8800000  15.4090000  15.6940000
  10.0440000  14.7210000  16.6720000  10.5280000  13.9610000  16.0560000
   9.0110000  14.8120000  16.3430000  10.0100000  14.2420000  18.1300000
  11.0350000  14.1360000  18.4730000   9.3420000  15.2060000  19.0530000
   8.4040000  15.5350000  18.6140000   9.1400000  14.7270000  20.0080000
   9.9980000  16.0430000  19.2390000   9.3640000  12.8710000  18.2240000
   9.4490000  12.4820000  19.2380000   8.3120000  12.9390000  17.9460000
   9.8630000  12.2020000  17.5360000  12.7670000  16.7110000  17.5330000
  12.1610000  17.2290000  18.1640000  14.2020000  16.8190000  17.7040000
  14.7160000  16.1860000  16.9860000  14.5130000  17.8480000  17.5340000
  14.6320000  16.4190000  19.0950000  13.8620000  16.4710000  20.0580000
  15.8940000  15.9990000  19.1740000  16.4370000  15.9680000  18.3140000
  16.5480000  15.6010000  20.4000000  15.9040000  15.8760000  21.2290000
  17.8580000  16.3590000  20.5490000  18.5920000  16.5750000  19.5860000
  16.7460000  14.0990000  20.4820000  15.7530000  13.6510000  20.4330000
  17.5360000  13.5350000  19.2940000  18.5400000  13.9540000  19.2620000
  17.5970000  12.4560000  19.3970000  17.0170000  13.7420000  18.3590000
  17.3480000  13.6510000  21.8090000  16.7680000  14.0550000  22.6400000
  18.3870000  13.9680000  21.8870000  17.2970000  12.5630000  21.8420000
  18.1240000  16.7510000  21.8020000  17.4370000  16.5550000  22.5230000
  19.2950000  17.5260000  22.1840000  19.9900000  17.5740000  21.3500000
  19.9670000  16.8590000  23.3790000  19.3060000  16.5200000  24.3450000
  18.9280000  18.9600000  22.5890000  19.8490000  19.5000000  22.8140000
  18.3390000  18.9340000  23.5020000  18.1600000  19.7240000  21.5570000
  16.7980000  19.4670000  21.3540000  16.2980000  18.7270000  21.9620000
  18.7670000  20.6840000  20.7510000  19.8200000  20.9020000  20.8590000
  16.0930000  20.1050000  20.3810000  15.0710000  19.8210000  20.2180000
  17.9990000  21.3620000  19.7500000  18.4610000  22.0840000  19.0910000
  16.6690000  21.0320000  19.6180000  16.0890000  21.5080000  18.8390000
  21.2630000  16.6800000  23.3090000  21.7490000  17.0050000  22.4790000
  22.0800000  16.1790000  24.4280000  21.4510000  15.8180000  25.2430000
  22.9240000  17.3280000  24.9140000  23.6170000  17.9930000  24.1310000
  22.9970000  15.0370000  23.9570000  23.6270000  14.7000000  24.7820000
  23.6390000  15.4100000  23.1580000  22.1760000  13.8520000  23.4210000
  21.3380000  14.1980000  22.8180000  21.7690000  13.3300000  24.2810000
  22.9580000  12.8770000  22.5480000  23.4350000  13.2230000  21.4690000
  23.0700000  11.6600000  22.9860000  23.6650000  11.0240000  22.4540000
  22.7190000  11.3990000  23.8900000  22.8470000  17.5870000  26.2090000
  22.2820000  17.0010000  26.8160000  23.6220000  18.6510000  26.8210000
  24.2450000  19.1180000  26.0680000  24.5410000  18.1230000  27.8970000
  24.1770000  17.2210000  28.6410000  22.7130000  19.7170000  27.4110000
  23.3300000  20.3690000  28.0310000  21.9660000  19.2640000  28.0670000
  22.0360000  20.5920000  26.3560000  22.7140000  20.6820000  25.5070000
  20.7340000  19.9310000  25.8270000  20.3150000  20.5480000  25.0350000
  20.8960000  18.9390000  25.4280000  20.0160000  19.8710000  26.6430000
  21.7660000  21.9930000  26.8020000  22.7030000  22.4960000  27.0360000
  21.2540000  22.5440000  26.0150000  21.1390000  21.9760000  27.6960000
  25.7320000  18.6970000  27.9150000  25.9430000  19.4140000  27.2260000
  26.7450000  18.4020000  28.9640000  26.2940000  17.8330000  29.7770000
  27.1670000  19.7660000  29.5060000  27.6490000  20.6090000  28.7680000
  27.9350000  17.5850000  28.3920000  28.3580000  18.1050000  27.5330000
  27.4720000  16.2680000  27.9920000  26.7730000  16.0090000  28.5970000
  29.0380000  17.3490000  29.4140000  29.4890000  18.2970000  29.7100000
  28.6390000  16.8530000  30.2990000  29.8160000  16.7260000  28.9720000
  26.9210000  20.0250000  30.7940000  26.5400000  19.3040000  31.3870000
  27.3460000  21.3060000  31.4060000  26.9000000  21.3720000  32.3980000
  26.8070000  22.5210000  30.6380000  27.4870000  23.5290000  30.4220000
  28.8730000  21.3210000  31.5990000  29.3670000  21.1070000  30.6510000
  29.1970000  22.3030000  31.9450000  29.2830000  20.2910000  32.6400000
  28.6190000  19.4260000  32.5810000  29.1260000  20.7280000  33.6290000
  30.7120000  19.7630000  32.5500000  31.5910000  20.4940000  32.0530000
  30.9690000  18.6060000  33.0090000  25.5640000  22.3940000  30.1800000
  25.0520000  21.5440000  30.3690000  24.8820000  23.4990000  29.5690000
  25.1060000  24.4190000  30.1110000  23.8140000  23.3020000  29.6510000
  25.1950000  23.7240000  28.0900000  24.7110000  24.6990000  27.5480000
  26.0150000  22.8670000  27.5020000  26.4380000  22.1300000  28.0600000
  26.4120000  23.0050000  26.0720000  25.8930000  23.8610000  25.6400000
  25.9250000  21.7980000  25.2900000  25.8990000  20.6820000  25.8020000
  27.8990000  23.2310000  25.9050000  28.1480000  23.2590000  24.8450000
  28.4210000  22.3800000  26.3470000  28.4390000  24.5380000  26.5930000
  28.0650000  24.6190000  27.6140000  29.5280000  24.4850000  26.6260000
  28.0320000  25.7640000  25.7740000  28.3870000  25.6560000  24.7470000
  26.9430000  25.8340000  25.7650000  28.5960000  27.0080000  26.3640000
  29.6830000  26.9780000  26.2410000  28.3800000  27.0140000  27.4370000
  28.0560000  28.2160000  25.7400000  27.0690000  28.3170000  25.9320000
  28.5410000  29.0490000  26.0400000  28.1590000  28.1720000  24.7210000
  25.6280000  22.0250000  24.0100000  25.6750000  22.9750000  23.6570000
  25.0730000  20.9660000  23.1600000  24.3580000  20.3890000  23.7480000
  26.1570000  20.0280000  22.6930000  27.1000000  20.4640000  22.0040000
  24.2910000  21.5820000  21.9540000  24.9770000  22.2170000  21.3910000
  23.1380000  22.4550000  22.4270000  22.4070000  21.8280000  22.9410000
  23.5080000  23.1760000  23.1550000  23.8100000  20.5080000  21.0330000
  23.2310000  20.9320000  20.2150000  23.1900000  19.7950000  21.5780000
  24.6490000  19.9870000  20.5720000  22.4270000  23.2510000  21.3810000
  21.8660000  22.6020000  20.7100000  21.7240000  23.9330000  21.8610000
  23.1440000  23.8350000  20.8030000  26.0370000  18.7310000  23.0300000
  25.2730000  18.4540000  23.6400000  26.9090000  17.6770000  22.5430000
  27.8250000  18.1100000  22.1420000  26.2850000  16.8660000  21.4370000
  26.9490000  16.0930000  20.7810000  27.3230000  16.7500000  23.6440000
  28.0660000  16.0420000  23.2730000  26.1960000  16.0550000  24.1290000
  26.5050000  15.5310000  24.8740000  27.8820000  17.4910000  24.8550000
  27.1070000  18.0680000  25.3600000  28.6820000  18.1570000  24.5340000
  28.3060000  16.7640000  25.5450000  24.9790000  17.0470000  21.2060000
  24.4410000  17.6320000  21.8300000  24.3250000  16.4120000  20.0640000
  24.1530000  15.3580000  20.2730000  24.9590000  16.4930000  19.1850000
  22.9920000  17.0970000  19.8150000  22.2600000  17.4340000  20.7410000
  22.6490000  17.2510000  18.5290000  23.3420000  17.0570000  17.8130000
  21.3440000  17.7830000  18.1200000  20.6060000  17.6290000  18.9030000
  20.9250000  17.0430000  16.8740000  21.6360000  17.0990000  15.8620000
  21.4580000  19.2760000  17.8470000  22.2960000  19.4500000  17.1690000
  21.6770000  19.7840000  18.7860000  20.2200000  19.9130000  17.2520000
  18.9190000  19.4610000  17.3090000  18.5750000  18.5730000  17.8260000
  20.1940000  21.1230000  16.4620000  18.1050000  20.3190000  16.6210000
  17.1390000  20.1000000  16.3690000  18.8440000  21.3440000  16.0870000
  21.1560000  22.0170000  16.0340000  22.1880000  21.7970000  16.2380000
  18.4750000  22.4300000  15.2950000  17.4470000  22.5730000  14.9910000
  20.7910000  23.0620000  15.2380000  21.5520000  23.7300000  14.8610000
  19.4750000  23.2830000  14.8950000  19.2270000  24.1230000  14.2600000
  19.8140000  16.3050000  16.9500000  19.2860000  16.3100000  17.8200000
  19.2930000  15.5440000  15.8140000  19.8370000  15.8240000  14.9250000
  17.8340000  15.9000000  15.6030000  17.0010000  15.7230000  16.5170000
  19.4720000  14.0540000  16.0190000  18.9840000  13.5200000  15.2030000
  18.9790000  13.7670000  16.9450000  20.9440000  13.6350000  16.0690000
  21.4820000  14.2680000  16.7720000  21.3850000  13.7870000  15.0880000
  21.1590000  12.1920000  16.4790000  20.6410000  11.5490000  15.7630000
  22.2230000  11.9580000  16.4150000  20.6590000  11.8930000  17.8160000
  19.8230000  11.3050000  17.8890000  21.2630000  12.1890000  18.9440000
  22.4200000  12.8520000  18.9460000  22.8420000  13.0860000  18.0650000
  22.9130000  13.0120000  19.8210000  20.6950000  11.8290000  20.0880000
  19.8230000  11.2910000  20.0770000  21.1490000  12.0040000  20.9510000
  17.4970000  16.3680000  14.4110000  18.2230000  16.4380000  13.7070000
  16.1290000  16.7040000  14.0330000  15.4710000  16.6670000  14.9020000
  15.6160000  15.6860000  13.0190000  16.2700000  15.4040000  12.0110000
  16.0440000  18.1100000  13.4310000  15.1530000  18.1660000  12.8030000
  16.9080000  18.2770000  12.7850000  15.9390000  19.2400000  14.4500000
  15.5780000  18.9980000  15.6140000  16.1900000  20.3980000  14.0450000
  14.4330000  15.1560000  13.3190000  13.9620000  15.4380000  14.1750000
  13.7820000  14.1290000  12.4910000  14.4690000  13.7630000  11.7270000
  12.5540000  14.7410000  11.8190000  11.6950000  15.3630000  12.4580000
  13.3540000  12.9360000  13.3800000  12.7450000  13.3020000  14.2060000
  12.7090000  12.2910000  12.7830000  14.4770000  12.0900000  13.9440000
  15.2930000  12.5440000  14.9630000  15.1450000  13.5390000  15.3630000
  14.6770000  10.8040000  13.4820000  14.0390000  10.4070000  12.7020000
  16.2730000  11.7430000  15.5100000  16.8940000  12.1070000  16.3150000
  15.6580000   9.9860000  14.0290000  15.8000000   8.9770000  13.6870000
  16.4510000  10.4750000  15.0460000  17.4080000   9.6180000  15.5560000
  17.7920000   9.9640000  16.3920000  12.4730000  14.4980000  10.5150000
  13.2040000  13.9780000  10.0470000  11.3980000  15.0330000   9.6610000
  10.4250000  14.7730000  10.0790000  11.5260000  14.4000000   8.2920000
  12.4920000  13.6820000   7.9670000  11.5030000  16.5750000   9.5460000
  10.6820000  16.9400000   8.9310000  11.3640000  17.0220000  10.5290000
  12.8130000  17.0570000   8.9760000  12.9570000  17.2180000   7.6120000
  12.1260000  17.0040000   6.9570000  13.8860000  17.3630000   9.7810000
  13.8000000  17.2660000  10.8540000  14.1370000  17.6630000   7.0640000
  14.2070000  17.7980000   5.9970000  15.0870000  17.7840000   9.2330000
  15.9120000  18.0240000   9.8890000  15.2040000  17.9580000   7.8710000
  16.1200000  18.3340000   7.4420000  10.5180000  14.6640000   7.4660000
   9.7540000  15.2510000   7.7640000  10.4930000  14.1830000   6.0690000
  11.1080000  13.2890000   5.9790000  11.0380000  15.2330000   5.1260000
  10.5250000  16.3580000   5.0720000   9.0590000  13.8030000   5.6510000
   8.6490000  13.1210000   6.3800000   8.4420000  14.7010000   5.6600000
   9.0500000  13.2030000   4.3000000   9.5090000  12.0570000   4.2030000
   8.6610000  13.8450000   3.3090000  12.1060000  14.9210000   4.4060000
  12.5100000  13.9830000   4.4770000  12.7240000  15.8960000   3.5260000
  12.7340000  16.8540000   4.0460000  11.9700000  16.1020000   2.2270000
  11.8990000  17.2300000   1.7310000  14.1800000  15.4840000   3.2350000
  14.1670000  14.5340000   2.6980000  14.6730000  15.3100000   4.1870000
  15.0090000  16.4750000   2.4630000  14.5350000  16.6300000   1.4970000
  15.1250000  17.8280000   3.1590000  14.1610000  18.3340000   3.1640000
  15.8440000  18.4520000   2.6400000  15.4820000  17.6830000   4.1760000
  16.4060000  15.8790000   2.1760000  16.9870000  15.8370000   3.0950000
  16.3250000  14.8740000   1.7710000  16.9280000  16.5130000   1.4590000
  11.4350000  15.0470000   1.6260000  11.3920000  14.1740000   2.1410000
  10.8620000  15.1710000   0.2980000  11.6090000  15.6000000  -0.3720000
   9.7010000  16.1290000   0.2520000   9.5480000  16.8830000  -0.6950000
  10.4570000  13.7990000  -0.2330000  11.3590000  13.2040000  -0.3780000
   9.8490000  13.3110000   0.5320000   9.6810000  13.8400000  -1.5220000
  10.2550000  14.3960000  -2.2660000   8.7400000  14.3700000  -1.3640000
   9.3340000  12.5070000  -2.0950000  10.2660000  12.0370000  -2.4140000
   8.7040000  12.6680000  -2.9730000   8.6470000  11.6750000  -1.1410000
   8.2870000  12.1080000  -0.3030000   8.5980000  10.3880000  -1.2440000
   9.0600000   9.7820000  -2.3280000   9.4920000  10.2930000  -3.0700000
   8.9830000   8.7580000  -2.3700000   8.0770000   9.6830000  -0.2690000
   7.8820000  10.0940000   0.6340000   7.8960000   8.6840000  -0.4010000
   8.7950000  16.0600000   1.2440000   8.8900000  15.3660000   1.9890000
   7.6210000  16.9360000   1.2580000   7.0060000  16.7720000   0.3720000
   8.0650000  18.4150000   1.2660000   7.4610000  19.2520000   0.6300000
   6.7820000  16.6750000   2.5200000   7.4560000  16.7760000   3.3730000
   6.0750000  17.5020000   2.5880000   5.9680000  15.4330000   2.7300000
   5.2050000  15.4160000   1.9470000   6.5530000  14.5350000   2.5760000
   5.2690000  15.4140000   4.1090000   6.0200000  15.4360000   5.1040000
   4.0000000  15.3920000   4.1620000   9.0840000  18.6990000   2.0220000
   9.5290000  17.9530000   2.5410000   9.6370000  20.0510000   2.0940000
   8.8450000  20.7520000   2.3590000  10.1970000  20.4540000   0.7120000
   9.8830000  21.5190000   0.1700000  10.6990000  20.0250000   3.1830000
  10.1970000  19.8030000   4.1210000  11.3880000  19.2090000   2.9920000
  11.4930000  21.2360000   3.3690000  11.0680000  22.4970000   3.0480000
  10.1150000  22.6530000   2.5660000  12.6970000  21.0990000   4.0540000
  13.0250000  20.1230000   4.3820000  11.8740000  23.5880000   3.2950000
  11.5440000  24.5780000   3.0120000  13.4780000  22.1920000   4.3200000
  14.4140000  22.0720000   4.8480000  13.0800000  23.4200000   3.9280000
  13.6990000  24.2780000   4.1390000  11.0360000  19.6010000   0.1420000
  11.2650000  18.7360000   0.6220000  11.6290000  19.8730000  -1.1530000
  12.2800000  20.7470000  -1.0940000  10.6090000  20.1470000  -2.2090000
  10.8160000  21.0510000  -3.0530000  12.4470000  18.6700000  -1.6060000
  11.8450000  17.7650000  -1.5260000  12.6790000  18.8220000  -2.6630000
  13.7070000  18.4640000  -0.8960000  14.2090000  19.3450000  -1.1090000
  13.5530000  18.3080000   0.1680000  14.5560000  17.3410000  -1.5150000
  14.1810000  16.8580000  -2.5610000  15.6060000  17.0020000  -0.9650000
   9.5580000  19.3590000  -2.2270000   9.4910000  18.6010000  -1.5530000
   8.4980000  19.5160000  -3.2320000   8.9540000  19.5720000  -4.2220000
   7.7540000  20.8070000  -3.0460000   7.3310000  21.4320000  -4.0210000
   7.5320000  18.3180000  -3.2150000   7.1810000  18.1530000  -2.1950000
   6.6740000  18.5420000  -3.8510000   8.2090000  17.0660000  -3.7400000
   8.5320000  17.2710000  -4.7640000   9.1100000  16.8600000  -3.1640000
   7.3550000  15.8170000  -3.7530000   6.2810000  15.7770000  -3.1250000
   7.8220000  14.8540000  -4.3720000   7.5690000  21.2270000  -1.8180000
   7.9030000  20.6690000  -1.0400000   6.8150000  22.4570000  -1.5600000
   5.9010000  22.4490000  -2.1570000   7.6140000  23.6920000  -1.9530000
   7.0260000  24.7130000  -2.3810000   6.4510000  22.5530000  -0.1400000
   5.8840000  23.4670000   0.0370000   5.8400000  21.6940000   0.1410000
   7.3490000  22.5610000   0.4800000   8.9320000  23.6500000  -1.8480000
   9.3700000  22.8010000  -1.5030000   9.7510000  24.8610000  -2.0750000
   9.0860000  25.7110000  -2.1950000  10.5840000  24.8520000  -3.3580000
  11.2950000  25.8290000  -3.6150000  10.6400000  25.2120000  -0.8500000
  11.0970000  26.1830000  -1.0350000   9.8120000  25.3670000   0.4300000
  10.4340000  25.7810000   1.2220000   8.9750000  26.0410000   0.2490000
   9.4310000  24.3940000   0.7410000  11.7590000  24.1880000  -0.7060000
  12.2880000  24.3470000   0.2330000  12.4700000  24.2970000  -1.5240000
  11.3710000  23.1760000  -0.7240000  10.4920000  23.7880000  -4.1670000
   9.8790000  23.0230000  -3.9070000  11.1840000  23.6900000  -5.4520000
  10.9590000  22.7000000  -5.8520000  12.6790000  23.7610000  -5.3700000
  13.3370000  24.4360000  -6.1620000  10.6750000  24.7190000  -6.4770000
  11.2350000  24.6210000  -7.4090000  10.8060000  25.7320000  -6.1030000
   9.2380000  24.5310000  -6.8310000   8.6990000  23.4290000  -6.6470000
   8.5690000  25.4690000  -7.3320000  13.2380000  23.0320000  -4.4300000
  12.6600000  22.4670000  -3.8170000  14.6640000  22.9500000  -4.3710000
  15.1190000  23.1890000  -5.3300000  15.0960000  21.5530000  -3.9090000
  14.6210000  21.1330000  -2.8210000  15.0230000  23.9760000  -3.3460000
  14.5440000  24.9210000  -3.6180000  14.5860000  23.6680000  -2.3940000
  16.4800000  24.2770000  -3.1140000  16.9990000  23.3630000  -2.8270000
  17.1530000  24.8660000  -4.3530000  17.9250000  24.1770000  -4.6930000
  16.4370000  25.0220000  -5.1610000  17.6440000  25.8030000  -4.1390000
  16.5480000  25.2370000  -1.9830000  16.0250000  24.8450000  -1.1120000
  16.1020000  26.1880000  -2.2710000  17.5910000  25.3970000  -1.7100000
  15.9960000  20.9000000  -4.6640000  16.4300000  19.5570000  -4.2940000
  15.5840000  18.9210000  -4.0250000  17.4490000  19.5720000  -3.2160000
  18.6490000  19.6980000  -3.4020000  17.0830000  19.0450000  -5.5700000
  17.7590000  18.2070000  -5.3900000  16.3090000  18.7400000  -6.2770000
  17.8170000  20.2480000  -6.1100000  18.7480000  20.4800000  -5.5980000
  18.0230000  20.1270000  -7.1740000  16.7470000  21.3440000  -5.8810000
  16.0670000  21.3860000  -6.7330000  17.2270000  22.3090000  -5.7290000
  16.9900000  19.2070000  -2.0590000  16.0150000  18.9610000  -1.9760000
  17.7310000  19.3930000  -0.8580000  18.3200000  20.3040000  -0.9470000
  18.7560000  18.3410000  -0.5290000  19.4100000  18.4400000   0.4880000
  16.7150000  19.5500000   0.2850000  17.2700000  19.7150000   1.2090000
  16.1420000  18.6580000   0.4580000  15.7700000  20.7480000   0.0820000
  15.3200000  20.7980000  -0.8380000  14.7640000  20.9250000   1.1890000
  15.2710000  21.1320000   2.1310000  14.0860000  21.7460000   0.9540000
  14.1680000  20.0280000   1.3170000  16.5910000  21.9500000   0.0530000
  17.1370000  22.0260000  -0.8850000  15.9550000  22.8330000   0.1040000
  17.2860000  21.9750000   0.8920000  18.8880000  17.3180000  -1.3330000
  18.2760000  17.2880000  -2.1360000  20.0290000  16.3680000  -1.2270000
  20.4260000  16.3460000  -0.2110000  21.1840000  16.7380000  -2.1460000
  22.1710000  16.0020000  -2.2130000  19.5870000  14.9720000  -1.6450000
  19.2600000  14.9970000  -2.6870000  20.4270000  14.2790000  -1.5610000
  18.4820000  14.4740000  -0.7710000  18.8270000  14.4590000   0.2640000
  17.6120000  15.1280000  -0.8340000  18.0400000  13.0060000  -1.1740000
  17.3460000  12.6310000  -0.4190000  18.9260000  12.3670000  -1.1920000
  17.3970000  13.0260000  -2.4690000  17.2950000  13.9210000  -2.9230000
  17.0360000  11.9520000  -3.1280000  17.1930000  10.7770000  -2.5580000
  16.8570000   9.8950000  -2.9820000  17.6440000  10.6900000  -1.6670000
  16.4960000  12.0770000  -4.3240000  16.5090000  12.9550000  -4.8110000
  16.2120000  11.2220000  -4.7880000  21.0380000  17.8100000  -2.9270000
  20.1440000  18.2790000  -2.9640000  22.0760000  18.3080000  -3.8230000
  23.0190000  17.7830000  -3.6840000  22.2240000  19.3750000  -3.6760000
  21.6470000  18.1040000  -5.2490000  22.2250000  18.6250000  -6.2120000
  20.6340000  17.4130000  -5.4040000  23.4450000  -5.9600000  12.6640000
  24.0790000  -5.1560000  12.6930000  23.9290000  -6.6920000  12.1600000
  23.3100000  -6.2530000  13.6210000  22.1790000  -5.5980000  11.9900000
  22.3690000  -5.5690000  10.9150000  21.8180000  -4.1610000  12.3440000
  21.8280000  -3.3850000  11.4410000  21.1090000  -6.6280000  12.2330000
  21.1650000  -6.8110000  13.2980000  21.4620000  -7.5450000  11.7550000
  19.7570000  -6.3750000  11.6720000  19.3900000  -7.2840000  11.1910000
  19.7710000  -5.5720000  10.9320000  18.8500000  -6.0420000  12.7960000
  19.2310000  -5.0920000  13.0690000  17.8250000  -5.9500000  12.4300000
  18.9050000  -7.0230000  13.9520000  18.0360000  -7.6850000  13.8570000
  19.7500000  -7.7030000  13.8920000  18.8660000  -6.3530000  15.2850000
  17.9330000  -5.9910000  15.4670000  19.5050000  -5.5710000  15.3630000
  19.0700000  -7.0070000  16.0350000  21.5330000  -3.8020000  13.5960000
  21.7000000  -4.4320000  14.3620000  21.4100000  -2.3770000  13.9740000
  21.2540000  -1.7480000  13.0970000  22.6900000  -1.9380000  14.6480000
  23.0380000  -2.4230000  15.7240000  20.2280000  -2.1400000  14.9440000
  20.3680000  -2.7410000  15.8460000  18.9190000  -2.5700000  14.2670000
  18.9880000  -3.6210000  14.1720000  18.7820000  -2.0750000  13.3050000
  20.2110000  -0.6630000  15.3500000  19.3650000  -0.4620000  16.0040000
  20.1480000  -0.0150000  14.4760000  21.0960000  -0.4040000  15.9350000
  17.6660000  -2.4440000  15.1310000  16.8210000  -2.9280000  14.6480000
  17.4140000  -1.3950000  15.2820000  17.8330000  -2.9190000  16.0970000
  23.4060000  -1.0010000  14.0910000  23.1680000  -0.5190000  13.2430000
  24.5670000  -0.6410000  14.8930000  24.8280000  -1.4010000  15.6200000
  24.3370000   0.5720000  15.7970000  23.4330000   1.4360000  15.6050000
  25.8830000  -0.5840000  14.1270000  26.3120000   0.4140000  14.2320000
  25.7200000  -0.7520000  13.0610000  26.8890000  -1.5990000  14.6750000
  27.8810000  -1.2590000  14.3680000  26.8880000  -1.6050000  15.7680000
  26.6840000  -3.0040000  14.1260000  25.5540000  -3.3290000  13.6790000
  27.6540000  -3.7960000  14.1470000  25.1640000   0.5690000  16.8180000
  25.8690000  -0.1500000  16.8730000  25.1200000   1.5660000  17.8690000
  24.0910000   1.6920000  18.2010000  25.6960000   2.8410000  17.3700000
  26.8370000   2.8840000  16.9250000  25.9890000   1.0830000  19.0330000
  26.1230000   1.9040000  19.7400000  26.9770000   0.8020000  18.6630000
  25.4050000  -0.0760000  19.7560000  25.3020000  -0.9230000  19.0770000
  26.0780000  -0.3720000  20.5610000  24.0660000   0.2710000  20.3660000
  23.9400000   1.2870000  21.0770000  23.0670000  -0.5680000  20.1140000
  22.1650000  -0.4480000  20.5760000  23.1350000  -1.3510000  19.4910000
  24.9300000   3.9190000  17.4310000  25.4570000   5.1750000  16.9090000
  25.8320000   5.0350000  15.8940000  26.5510000   5.8100000  17.7790000
  26.5540000   5.6510000  18.9970000  24.2440000   6.0700000  16.8820000
  24.5040000   7.1100000  17.0690000  23.7470000   5.9740000  15.9140000
  23.4340000   5.5570000  17.8650000  23.7180000   6.0040000  18.8180000
  22.3900000   5.8080000  17.6760000  23.5870000   4.0690000  17.9720000
  23.5110000   3.7340000  19.0080000  22.8650000   3.5620000  17.3300000
  27.4270000   6.5970000  17.1560000  27.3920000   6.6430000  16.1490000
  28.4720000   7.2860000  17.8680000  29.0690000   6.5560000  18.4210000
  27.9340000   8.2300000  18.9170000  28.6370000   8.5240000  19.8750000
  29.3780000   8.0410000  16.8860000  30.0510000   8.6960000  17.4430000
  28.7530000   8.6590000  16.2500000  30.2150000   7.1040000  16.0280000
  31.0280000   6.6900000  16.6270000  29.5990000   6.2740000  15.6800000
  30.7730000   7.7870000  14.8130000  29.9370000   8.1980000  14.2420000
  31.2580000   7.0250000  14.1980000  31.7440000   8.8400000  15.0950000
  32.1000000   8.9290000  16.0340000  32.1930000   9.6980000  14.1630000
  31.8010000   9.6020000  12.8980000  32.1310000  10.2570000  12.2130000
  31.0820000   8.9400000  12.6600000  33.0940000  10.6040000  14.4920000
  33.4650000  11.2240000  13.7950000  33.4010000  10.6940000  15.4460000
  26.7170000   8.7570000  18.7070000  26.2010000   8.4300000  17.9070000
  26.0630000   9.7080000  19.5700000  26.8230000  10.2920000  20.0940000
  25.2180000   9.1000000  20.6530000  24.5750000   9.7990000  21.3990000
  25.2100000  10.6900000  18.7370000  25.8970000  11.3970000  18.2720000
  24.5720000  11.2850000  19.3900000  24.3750000  10.0800000  17.6500000
  24.6510000  10.1290000  16.3630000  25.4970000  10.6450000  15.9390000
  23.1210000   9.3880000  17.7720000  23.6810000   9.5180000  15.6340000
  23.6310000   9.5130000  14.6210000  22.7070000   9.0700000  16.4930000
  22.3090000   9.0350000  18.8450000  22.6090000   9.2950000  19.8450000
  21.5080000   8.4250000  16.2320000  21.1970000   8.2040000  15.2220000
  21.1350000   8.3870000  18.6250000  20.4920000   8.1210000  19.4530000
  20.7330000   8.0630000  17.3030000  19.7870000   7.5650000  17.1370000
  25.1720000   7.7980000  20.7340000  25.7550000   7.2080000  20.1550000
  24.4300000   7.1910000  21.8560000  23.3690000   7.4080000  21.7280000
  24.8740000   7.7170000  23.2210000  26.0650000   7.8060000  23.5170000
  24.6060000   5.6530000  21.8510000  25.6560000   5.3960000  21.9990000
  24.2710000   5.2330000  20.9050000  24.0180000   5.2090000  22.6550000
  23.9060000   7.9600000  24.0890000  22.9430000   7.7980000  23.8150000
  24.1860000   8.3960000  25.4430000  24.7720000   9.3140000  25.4160000
  24.9410000   7.3340000  26.2260000  24.7020000   6.1320000  26.0550000
  22.8700000   8.6600000  26.1620000  22.2470000   7.7640000  26.1180000
  22.3460000   9.4800000  25.6680000  23.1040000   8.9950000  27.5280000
  22.2630000   9.1550000  27.9710000  25.8350000   7.7840000  27.1020000
  25.9460000   8.7800000  27.2090000  26.5180000   6.8730000  28.0230000
  26.5060000   5.8630000  27.6090000  25.8160000   6.7710000  29.3720000
  26.3060000   6.1740000  30.3010000  27.9830000   7.2830000  28.2200000
  28.4730000   6.5290000  28.8390000  28.0190000   8.2360000  28.7500000
  28.7560000   7.4170000  26.9090000  28.3370000   8.2280000  26.3120000
  28.6530000   6.4860000  26.3480000  30.2320000   7.6930000  27.1360000
  30.3520000   8.6590000  27.6310000  30.6270000   6.9130000  27.7900000
  31.0240000   7.6830000  25.8180000  30.6540000   6.8460000  25.2160000
  30.7820000   8.5980000  25.2660000  32.5180000   7.5500000  25.9760000
  32.9630000   7.5280000  25.0640000  32.8890000   8.3440000  26.4860000
  32.7530000   6.7010000  26.4740000  24.6440000   7.3520000  29.5090000
  24.2220000   7.8180000  28.7170000  23.8680000   7.2590000  30.7680000
  24.5210000   7.1120000  31.6290000  22.9350000   6.0510000  30.6240000
  22.0010000   6.0230000  29.7970000  23.1180000   8.6040000  30.9630000
  22.4710000   8.7860000  30.1040000  23.8550000   9.4080000  31.0090000
  22.2530000   8.6560000  32.2270000  21.8090000   7.5990000  32.7420000
  21.9620000   9.7680000  32.7320000  23.1160000   5.0260000  31.4560000
  23.8330000   5.0850000  32.1620000  22.2560000   3.8390000  31.3490000
  22.3770000   3.4220000  30.3480000  20.7610000   4.1240000  31.4930000
  19.9210000   3.4370000  30.8650000  22.6830000   2.7710000  32.3450000
  21.8320000   2.1240000  32.5680000  23.0190000   3.2330000  33.2750000
  23.7160000   1.9570000  31.7900000  24.4520000   2.5190000  31.5290000
  20.4200000   5.1050000  32.3220000  21.1160000   5.7590000  32.6800000
  19.0300000   5.4210000  32.5260000  18.4870000   4.5050000  32.7640000
  18.4110000   5.9890000  31.2410000  17.2170000   5.8980000  31.0790000
  18.8680000   6.3730000  33.6960000  17.8060000   6.5640000  33.8640000
  19.2990000   5.9370000  34.5970000  19.3590000   7.3240000  33.4840000
  19.2120000   6.6310000  30.3850000  20.2030000   6.6950000  30.5900000
  18.7140000   7.1360000  29.1030000  17.8190000   7.6850000  29.1920000
  18.3040000   6.0150000  28.1990000  17.4690000   6.3100000  27.3860000
  19.7240000   7.9850000  28.3970000  20.5390000   7.3590000  28.0320000
  19.2540000   8.4730000  27.5460000  20.1440000   8.7310000  29.0680000
  18.8990000   4.8130000  28.2750000  19.6010000   4.6610000  28.9890000
  18.4770000   3.6890000  27.4510000  18.0070000   4.0500000  26.5360000
  19.3610000   3.1210000  27.1630000  17.5120000   2.7300000  28.1140000
  17.1340000   1.7340000  27.5080000  17.1130000   2.9940000  29.3490000
  17.3920000   3.8570000  29.7960000  16.2090000   2.0950000  30.0810000
  15.9690000   1.2220000  29.4740000  14.9050000   2.8030000  30.4110000
  14.9000000   3.9560000  30.6550000  16.8580000   1.5920000  31.3840000
  17.7890000   1.0730000  31.1490000  17.0790000   2.4370000  32.0390000
  16.1840000   0.9060000  31.8980000  13.8080000   2.0850000  30.4380000
  13.8580000   1.1070000  30.2080000  12.5450000   2.6460000  30.9230000
  12.3360000   3.5680000  30.3720000  12.6800000   2.9930000  32.4050000
  13.1130000   2.1720000  33.2200000  11.4430000   1.7090000  30.7070000
  10.5500000   2.1000000  31.1880000  11.2390000   1.6240000  29.6400000
  11.6860000   0.7290000  31.1170000  12.2820000   4.1950000  32.7720000
  12.0730000   4.8870000  32.0430000  12.5160000   4.6820000  34.1070000
  12.9810000   3.9240000  34.7340000  11.2290000   5.0930000  34.8020000
  11.2820000   5.6470000  35.9190000  13.5080000   5.8600000  34.0500000
  13.7610000   6.1660000  35.0660000  13.0410000   6.7040000  33.5380000
  14.7230000   5.5090000  33.3600000  14.5700000   5.3420000  32.4340000
  10.0900000   4.8870000  34.1310000  10.1540000   4.5930000  33.1650000
   8.7700000   5.1430000  34.6650000   8.8270000   5.1440000  35.7520000
   7.8210000   4.0500000  34.1990000   8.0590000   3.3850000  33.2030000
   8.1460000   6.4970000  34.2220000   7.2660000   6.7080000  34.8280000
   7.7460000   6.3900000  32.8460000   7.8980000   7.2550000  32.4430000
   9.1090000   7.6650000  34.3410000   8.5810000   8.5970000  34.1380000
   9.5200000   7.7080000  35.3490000   9.9250000   7.5680000  33.6230000
   6.6790000   3.8730000  34.8530000   5.6930000   2.9230000  34.3720000
   6.1120000   1.9180000  34.4200000   5.2510000   3.2020000  32.9220000
   5.1250000   2.2290000  32.1690000   4.5660000   3.0460000  35.4160000
   3.8520000   3.8090000  35.0990000   4.0490000   2.0950000  35.5530000
   5.2380000   3.5030000  36.6960000   4.5480000   4.0400000  37.3480000
   5.6670000   2.6420000  37.2120000   6.3400000   4.3920000  36.1930000
   5.9700000   5.4140000  36.1060000   7.1870000   4.3510000  36.8780000
   4.9850000   4.4500000  32.5320000   5.0160000   5.2210000  33.1790000
   4.6110000   4.6980000  31.1260000   3.7540000   4.0750000  30.8640000
   5.7330000   4.3440000  30.1510000   5.4700000   3.8190000  29.0340000
   4.2410000   6.1470000  30.8990000   4.9830000   6.7900000  31.3780000
   4.2690000   6.3520000  29.8270000   2.8740000   6.5230000  31.3740000
   2.0770000   5.6590000  31.7950000   2.4810000   7.7270000  31.3100000
   6.9630000   4.6510000  30.5120000   7.1320000   5.1200000  31.3960000
   8.0840000   4.2700000  29.6540000   7.9050000   4.6640000  28.6530000
   8.1940000   2.7620000  29.5010000   8.4810000   2.2440000  28.4490000
   9.3930000   4.8660000  30.1540000  10.2520000   4.4150000  29.6680000
   9.5050000   4.5970000  31.2070000   9.4470000   6.3690000  30.0480000
   9.3960000   6.6340000  28.9910000   8.5790000   6.8200000  30.5280000
  10.7140000   6.9580000  30.6320000  11.6820000   6.1930000  30.8630000
  10.7510000   8.1810000  30.8190000   7.9120000   2.0360000  30.5970000
   7.6220000   2.5120000  31.4470000   7.9340000   0.5820000  30.5240000
   8.8930000   0.2690000  30.1090000   6.9050000   0.0310000  29.5220000
   7.1630000  -0.9040000  28.7740000   7.7900000  -0.0670000  31.9080000
   6.9580000   0.3870000  32.4470000   7.5640000  -1.1270000  31.7740000
   9.0880000   0.0460000  32.7450000   9.3330000   1.1000000  32.8550000
   9.8970000  -0.4450000  32.2020000   8.9830000  -0.5830000  34.1310000
   8.7640000  -1.6470000  34.0140000   8.1500000  -0.1280000  34.6700000
  10.2640000  -0.4350000  34.9480000  10.1120000  -0.9460000  35.9040000
  11.0860000  -0.9370000  34.4260000  10.5990000   1.0000000  35.1860000
  11.0240000   1.4020000  34.3530000  11.2850000   1.0900000  35.9270000
   9.7750000   1.5360000  35.4230000   5.7090000   0.5900000  29.5250000
   5.5030000   1.3090000  30.2090000   4.6780000   0.1710000  28.5750000
   4.5230000  -0.9080000  28.6660000   5.1260000   0.4470000  27.1510000
   4.9470000  -0.3780000  26.2590000   3.3630000   0.8670000  28.8130000
   3.5380000   1.9420000  28.8750000   2.7620000   0.3690000  30.1290000
   3.5220000   0.3780000  30.9110000   2.4110000  -0.6590000  30.0200000
   2.3750000   0.5990000  27.6930000   1.4120000   1.0570000  27.9030000
   2.2270000  -0.4750000  27.5730000   2.7040000   1.0230000  26.7470000
   1.6580000   1.2240000  30.5890000   1.3610000   0.9110000  31.5900000
   0.7890000   1.1210000  29.9480000   1.9700000   2.2680000  30.6310000
   5.7180000   1.6240000  26.9150000   5.8080000   2.2980000  27.6710000
   6.1720000   1.9660000  25.5550000   5.3280000   1.8620000  24.8720000
   7.2200000   0.9570000  25.0900000   7.1630000   0.5220000  23.9310000
   6.6590000   3.4080000  25.4840000   7.3650000   3.5970000  26.2930000
   7.3350000   3.7380000  24.1770000   6.6540000   3.5680000  23.3420000
   7.6380000   4.7840000  24.1750000   8.2320000   3.1350000  24.0410000
   5.4930000   4.3260000  25.6230000   5.8130000   5.3650000  25.5720000
   4.7740000   4.1460000  24.8230000   4.9940000   4.1750000  26.5790000
   8.1540000   0.5560000  25.9400000   8.1770000   0.9290000  26.8840000
   9.1200000  -0.4550000  25.5210000   9.5020000  -0.1730000  24.5410000
   8.4910000  -1.8260000  25.2920000   8.9180000  -2.5600000  24.4090000
  10.3090000  -0.5260000  26.4760000   9.9410000  -0.7150000  27.4860000
  10.9110000  -1.3880000  26.1830000  11.2280000   0.6950000  26.5040000
  10.7000000   1.5110000  26.9940000  12.5030000   0.4020000  27.3200000
  13.0980000   1.3090000  27.4230000  13.0960000  -0.3620000  26.8160000
  12.2310000   0.0350000  28.3070000  11.6420000   1.1560000  25.1370000
  12.4550000   1.8760000  25.2170000  10.8030000   1.6450000  24.6430000
  11.9800000   0.3020000  24.5490000   7.4710000  -2.1700000  26.0750000
   7.1980000  -1.5950000  26.8650000   6.7550000  -3.3970000  25.7930000
   7.4520000  -4.2390000  25.7880000   6.1050000  -3.3300000  24.4140000
   6.0920000  -4.3180000  23.6560000   5.6860000  -3.6440000  26.8630000
   5.0190000  -4.4320000  26.5100000   5.0870000  -2.7430000  26.9700000
   6.2000000  -4.0550000  28.2250000   7.0740000  -3.4520000  28.4750000
   6.5390000  -5.0920000  28.1600000   5.1740000  -3.9300000  29.3640000
   3.9550000  -3.7050000  29.1130000   5.5870000  -4.0770000  30.5400000
   5.5320000  -2.1720000  24.0940000   5.5190000  -1.4230000  24.7800000
   4.9050000  -1.9840000  22.7850000   4.1880000  -2.7890000  22.6230000
   5.9420000  -2.0660000  21.6690000   5.7150000  -2.7240000  20.6540000
   4.1440000  -0.6440000  22.7890000   4.8440000   0.1660000  22.9840000
   3.4250000  -0.6540000  23.6090000   3.4010000  -0.3540000  21.5190000
   3.6970000   0.7760000  20.7690000   4.4840000   1.4400000  21.0920000
   2.3470000  -1.1120000  21.1110000   2.0690000  -1.9800000  21.6870000
   3.0250000   1.0470000  19.6190000   3.2880000   1.9150000  19.0300000
   1.6700000  -0.8210000  19.9710000   0.8410000  -1.4470000  19.6750000
   1.9990000   0.2520000  19.2290000   1.4550000   0.4760000  18.3240000
   7.1180000  -1.5000000  21.8780000   7.2750000  -0.9920000  22.7420000
   8.1880000  -1.6150000  20.8950000   7.8310000  -1.2360000  19.9390000
   8.5500000  -3.0790000  20.6500000   8.7190000  -3.5070000  19.5200000
   9.4230000  -0.8280000  21.2840000   9.7680000  -1.1650000  22.2620000
  10.2130000  -1.0480000  20.5670000   9.2400000   0.6790000  21.3310000
  10.1930000   1.1190000  21.6230000   8.5080000   0.9520000  22.0820000
   8.7580000   1.4080000  19.7620000   6.9940000   1.5250000  19.9040000
   6.7370000   2.1070000  20.7880000   6.5900000   2.0140000  19.0170000
   6.5560000   0.5330000  19.9860000   8.6280000  -3.8770000  21.7320000
   8.5850000  -3.4790000  22.6670000   8.9190000  -5.3050000  21.5880000
   9.8650000  -5.4430000  21.0620000   7.8070000  -6.0050000  20.7760000
   8.0590000  -6.9290000  20.0060000   9.0000000  -5.9710000  22.9690000
   8.9710000  -7.0530000  22.8300000   8.1390000  -5.6980000  23.5740000
  10.2640000  -5.6530000  23.7330000  11.2210000  -5.1200000  23.1360000
  10.3900000  -5.9480000  24.9790000   6.5640000  -5.5980000  20.9740000
   6.4070000  -4.8700000  21.6670000   5.4160000  -6.2200000  20.2940000
   5.5220000  -7.2980000  20.3960000   5.3440000  -5.9080000  18.7980000
   4.7060000  -6.6360000  18.0570000   4.1330000  -5.7990000  20.9570000
   3.2970000  -6.3740000  20.5620000   3.9500000  -4.7380000  20.7790000
   4.2040000  -5.9560000  22.0350000   5.9650000  -4.8110000  18.3540000
   6.4540000  -4.2120000  19.0160000   5.8800000  -4.4190000  16.9360000
   4.8350000  -4.2420000  16.6900000   6.3080000  -5.5170000  16.0020000
   5.7820000  -5.6240000  14.8910000   6.6800000  -3.1410000  16.6570000
   7.6950000  -3.2810000  17.0300000   6.7570000  -3.0190000  15.5780000
   6.1280000  -1.8400000  17.2310000   6.1080000  -1.9140000  18.3140000
   6.9870000  -0.6680000  16.8700000   7.9980000  -0.8190000  17.2480000
   6.5900000   0.2410000  17.3170000   7.0310000  -0.5390000  15.7880000
   4.7490000  -1.5880000  16.7560000   4.0660000  -2.3440000  17.1340000
   4.7190000  -1.5610000  15.6670000   4.4000000  -0.6320000  17.1490000
   7.2890000  -6.3300000  16.4100000   7.7050000  -6.1710000  17.3170000
   7.8190000  -7.3990000  15.5490000   7.9870000  -6.9900000  14.5540000
   6.8150000  -8.5410000  15.3550000   7.0470000  -9.4330000  14.5550000
   9.1540000  -7.9520000  16.0530000   9.3970000  -8.8490000  15.4820000
   9.0430000  -8.2940000  17.4360000   9.0950000  -7.5100000  17.9930000
  10.3030000  -6.9600000  15.8740000  11.2470000  -7.5000000  15.9480000
  10.2620000  -6.1790000  16.6320000  10.2550000  -6.5030000  14.8900000
   5.6980000  -8.5030000  16.0520000   5.5530000  -7.7350000  16.6930000
   4.6440000  -9.4550000  15.8140000   5.0520000 -10.4660000  15.8060000
   3.9670000  -9.2060000  14.4750000   3.2840000 -10.0950000  13.9670000
   3.5850000  -9.3510000  16.8960000   4.0650000  -9.3920000  17.8710000
   2.9140000 -10.2070000  16.8020000   2.8000000  -8.1460000  16.7830000
   3.3630000  -7.3940000  17.0590000   4.0360000  -7.9770000  13.9380000
   4.6440000  -7.2820000  14.3540000   3.3630000  -7.6380000  12.6810000
   3.4730000  -6.5690000  12.5170000   1.8640000  -7.9260000  12.7490000
   1.2030000  -8.2700000  11.7500000   3.9650000  -8.3770000  11.5150000
   3.4280000  -8.1140000  10.6040000   3.8640000  -9.4520000  11.6490000
   5.4020000  -8.0210000  11.2690000   5.7680000  -6.8380000  11.2370000
   6.2120000  -9.0300000  10.9670000   7.1550000  -8.8120000  10.6730000
   5.8890000  -9.9620000  11.0490000   1.2930000  -7.7780000  13.9430000
   1.8760000  -7.5790000  14.7420000  -0.0860000  -8.2170000  14.1890000
  -0.5440000  -8.6180000  13.2840000  -0.9380000  -7.0640000  14.6900000
  -0.8770000  -6.7050000  15.8780000  -0.0640000  -9.3450000  15.2260000
   0.3460000  -8.9860000  16.1670000   0.6020000 -10.1290000  14.8610000
  -1.4190000  -9.9650000  15.4700000  -2.4520000  -9.3500000  15.1790000
  -1.5000000 -11.1280000  15.9520000  -1.7260000  -6.4680000  13.7970000
  -1.7370000  -6.8250000  12.8540000  -2.5160000  -5.3080000  14.1240000
  -1.8400000  -4.5390000  14.4990000  -3.5240000  -5.5720000  15.2400000
  -3.7820000  -4.7120000  16.0920000  -3.2110000  -4.7450000  12.8930000
  -3.9020000  -5.4830000  12.4820000  -3.7750000  -3.8500000  13.1630000
  -2.4710000  -4.4830000  12.1370000  -4.0940000  -6.7690000  15.2540000
  -3.7540000  -7.5050000  14.6470000  -5.0280000  -7.1260000  16.3260000
  -5.7930000  -6.3470000  16.3910000  -4.3540000  -7.2030000  17.6760000
  -4.9640000  -6.8420000  18.6900000  -5.7430000  -8.4440000  15.9990000
  -6.3160000  -8.3280000  15.0790000  -5.0180000  -9.2490000  15.8760000
  -6.4260000  -8.7000000  16.8090000  -3.1330000  -7.6870000  17.7560000
  -2.7210000  -8.0800000  16.9100000  -2.4010000  -7.7180000  19.0180000
  -3.0350000  -8.1340000  19.8030000  -2.0220000  -6.2900000  19.4430000
  -2.1520000  -5.8950000  20.5980000  -1.1250000  -8.5620000  18.8790000
  -0.5830000  -8.1950000  18.0100000  -1.4220000  -9.5910000  18.6640000
  -0.1380000  -8.5750000  20.0420000   0.1720000  -7.5520000  20.2590000
  -0.6340000  -8.9790000  20.9250000   1.1260000  -9.3990000  19.7510000
   1.5530000  -9.0240000  18.8250000   0.8580000 -10.4480000  19.6080000
   2.1740000  -9.2640000  20.8860000   1.8450000  -9.8870000  21.7240000
   2.1510000  -8.2270000  21.2350000   3.5970000  -9.6150000  20.4990000
   3.9210000  -8.9950000  19.7640000   4.2180000  -9.5200000  21.2960000
   3.6460000 -10.5690000  20.1630000  -1.5070000  -5.5260000  18.4900000
  -1.4120000  -5.9080000  17.5530000  -1.0040000  -4.2120000  18.8010000
  -0.3460000  -4.2740000  19.6670000  -2.1160000  -3.2450000  19.1930000
  -1.9040000  -2.3670000  20.0400000  -0.2280000  -3.6970000  17.6070000
  -0.8640000  -3.7610000  16.7220000   0.0400000  -2.6500000  17.7550000
   1.0460000  -4.5250000  17.3870000   0.8230000  -5.5880000  17.4520000
   1.6440000  -4.2910000  16.0300000   0.8720000  -4.6330000  15.3500000
   2.4960000  -4.9510000  15.8690000   2.0050000  -3.2880000  15.8350000
   2.0800000  -4.2320000  18.4760000   2.2440000  -3.1590000  18.5560000
   3.0210000  -4.6980000  18.2080000   1.7630000  -4.6260000  19.4390000
  -3.3070000  -3.3950000  18.6210000  -3.4500000  -4.1010000  17.9030000
  -4.3740000  -2.4430000  18.9080000  -3.9360000  -1.4650000  18.7400000
  -4.8080000  -2.4720000  20.3840000  -5.3540000  -1.4890000  20.8810000
  -5.5470000  -2.5970000  17.9560000  -5.1620000  -2.7790000  16.9530000
  -6.3720000  -1.3260000  17.8950000  -6.7620000  -1.0610000  18.8740000
  -7.2320000  -1.5060000  17.2520000  -6.4490000  -3.7540000  18.3350000
  -7.0000000  -3.5550000  19.2510000  -7.1660000  -3.9410000  17.5330000
  -5.8610000  -4.6520000  18.4670000  -5.5620000  -0.1150000  17.3150000
  -4.9740000  -0.4300000  16.4530000  -4.9070000   0.3090000  18.0720000
  -6.2560000   0.6620000  17.0010000  -4.5320000  -3.5640000  21.0900000
  -4.1280000  -4.3690000  20.6250000  -4.8760000  -3.6610000  22.4790000
  -5.9350000  -3.4380000  22.5970000  -4.1550000  -2.6590000  23.3480000
  -4.6130000  -2.3620000  24.4380000  -4.6290000  -5.0700000  22.9740000
  -4.7570000  -5.1000000  24.0570000  -3.6040000  -5.3670000  22.7530000
  -5.6070000  -6.0640000  22.3440000  -5.4010000  -6.1260000  21.2750000
  -5.4080000  -7.0500000  22.7700000  -7.0930000  -5.7200000  22.5610000
  -7.9570000  -5.9510000  21.6400000  -7.4260000  -5.2440000  23.6620000
  -3.0430000  -2.0960000  22.8760000  -2.7080000  -2.3630000  21.9550000
  -2.3090000  -1.0810000  23.6240000  -2.2620000  -1.3670000  24.6740000
  -2.9790000   0.2920000  23.5590000  -2.5340000   1.2240000  24.2380000
  -0.8640000  -0.9790000  23.1010000  -0.8780000  -0.8820000  22.0150000
  -0.4160000  -0.0610000  23.4840000   0.0500000  -2.1200000  23.4850000
   0.0250000  -3.3240000  22.8140000  -0.6730000  -3.4660000  22.0010000
   0.9380000  -1.9940000  24.5260000   0.9890000  -1.0620000  25.0740000
   0.8960000  -4.3720000  23.1620000   0.8670000  -5.3120000  22.6350000
   1.8260000  -3.0190000  24.8710000   2.5310000  -2.8740000  25.6800000
   1.7720000  -4.2030000  24.2200000   2.6380000  -5.2070000  24.5670000
   3.2100000  -4.9460000  25.2960000  -3.9510000   0.4840000  22.6790000
  -4.2790000  -0.3200000  22.1550000  -4.5870000   1.7570000  22.3790000
  -3.9130000   2.5500000  22.7030000  -5.9060000   2.0020000  23.0760000
  -6.7420000   1.1150000  23.1660000  -4.7920000   1.9790000  20.8540000
  -5.4030000   1.1710000  20.4510000  -5.3470000   2.9050000  20.7120000
  -3.5220000   2.0640000  20.0810000  -2.7790000   0.9200000  19.8440000
  -3.1240000  -0.0330000  20.2100000  -3.0290000   3.2820000  19.6100000
  -3.5830000   4.1870000  19.7890000  -1.5900000   0.9780000  19.1320000
  -1.0270000   0.0730000  18.9530000  -1.8420000   3.3510000  18.9040000
  -1.4830000   4.3060000  18.5440000  -1.1300000   2.2010000  18.6560000
  -0.2070000   2.2280000  18.1070000  -6.0960000   3.2370000  23.5150000
  -5.3900000   3.9390000  23.3230000  -7.3970000   3.7050000  24.0010000
  -7.8110000   2.9890000  24.7130000  -8.3300000   3.8370000  22.8170000
  -7.9100000   3.9560000  21.6470000  -7.2580000   5.0780000  24.6640000
  -6.8820000   5.7990000  23.9360000  -8.2230000   5.4240000  25.0350000
  -6.5600000   5.0200000  25.4990000  -9.6230000   3.9010000  23.1170000
  -9.9410000   3.8100000  24.0680000 -10.5990000   4.1250000  22.0530000
 -10.5030000   3.3670000  21.2770000 -10.4340000   5.4730000  21.3710000
 -10.4980000   5.5910000  20.1380000 -12.0020000   4.0290000  22.6360000
 -12.0180000   4.5370000  23.6020000 -12.7080000   4.5560000  21.9940000
 -12.4730000   2.5990000  22.8340000 -11.7150000   2.0490000  23.3990000
 -13.3810000   2.6200000  23.4420000 -12.7810000   1.8780000  21.5260000
 -13.2570000   2.5550000  20.5870000 -12.5520000   0.6350000  21.4390000
 -10.1730000   6.5040000  22.1670000 -10.1640000   6.3640000  23.1620000
  -9.9690000   7.8710000  21.6610000 -10.3930000   7.9690000  20.6600000
  -8.4320000   7.9920000  21.5740000  -7.7320000   8.0290000  22.5890000
 -10.6000000   8.9550000  22.5420000 -10.2210000   8.8600000  23.5610000
 -10.3130000   9.9340000  22.1550000 -12.1080000   8.8620000  22.5610000
 -12.6650000   8.1360000  21.7050000 -12.7750000   9.4450000  23.4410000
  -7.9200000   7.9620000  20.3490000  -8.5410000   7.9130000  19.5570000
  -6.4910000   7.8820000  20.1260000  -5.9840000   8.5020000  20.8590000
  -6.1680000   8.4120000  18.7380000  -7.0360000   8.7540000  17.9480000
  -6.0560000   6.4260000  20.3260000  -6.4350000   6.0600000  21.2800000
  -4.6240000   6.3340000  20.3500000  -4.4010000   5.9680000  21.2220000
  -6.5440000   5.5450000  19.2250000  -6.2570000   4.5170000  19.4330000
  -6.1160000   5.8330000  18.2670000  -7.6310000   5.5820000  19.1750000
  -4.8750000   8.4930000  18.4440000  -4.1970000   8.1450000  19.1130000
  -4.4360000   8.8330000  17.0960000  -5.1210000   8.3680000  16.3900000
  -3.0430000   8.2540000  16.8600000  -2.3030000   7.9750000  17.7970000
  -4.4270000  10.3510000  16.8640000  -5.4140000  10.7240000  17.1330000
  -4.3200000  10.5340000  15.7950000  -3.4200000  11.1980000  17.6050000
  -3.3770000  10.8640000  18.6430000  -3.7810000  12.2270000  17.6060000
  -1.7410000  11.2030000  16.9160000  -1.9980000  11.8780000  15.3360000
  -2.9270000  12.4420000  15.2840000  -1.1570000  12.5370000  15.1200000
  -2.0170000  11.0760000  14.6020000  -2.7600000   8.0020000  15.5870000
  -3.4660000   8.2140000  14.8870000  -1.4770000   7.4790000  15.1220000
  -0.7290000   7.6230000  15.8920000  -1.0790000   8.2130000  13.8630000
  -1.8830000   8.3080000  12.9320000  -1.5890000   5.9960000  14.8300000
  -1.8000000   5.4840000  15.7700000  -2.4530000   5.8450000  14.1820000
  -0.3900000   5.3150000  14.1980000   0.9100000   5.5650000  14.5900000
   1.1140000   6.2690000  15.3820000  -0.5830000   4.3860000  13.2080000
  -1.5910000   4.1730000  12.8790000   1.9800000   4.8700000  14.0180000
   2.9920000   5.0540000  14.3540000   0.4500000   3.7180000  12.6190000
   0.2650000   2.9870000  11.8480000   1.7300000   3.9260000  13.0500000
   2.7570000   3.2160000  12.4710000   3.5920000   3.4030000  12.9180000
   0.1710000   8.6670000  13.7960000   0.7960000   8.5760000  14.5920000
   0.6520000   9.2140000  12.5540000   0.1020000   8.7680000  11.7230000
   2.1190000   8.8870000  12.3490000   2.9670000   9.2060000  13.1830000
   0.4410000  10.7140000  12.4900000   1.0770000  11.1920000  13.2330000
  -0.5940000  10.9220000  12.7560000   0.7110000  11.3510000  11.1430000
   0.1030000  10.8630000  10.3830000   1.7500000  11.1820000  10.8850000
   0.4690000  12.8290000  11.0770000   0.0280000  13.4620000  12.0400000
   0.7470000  13.4130000   9.9100000   1.0610000  12.8450000   9.1210000
   0.6870000  14.4110000   9.8380000   2.4230000   8.3080000  11.1890000
   1.6610000   8.0960000  10.5630000   3.7810000   8.3420000  10.6040000
   4.5520000   8.2850000  11.3780000   3.8480000   9.6800000   9.9020000
   3.0940000   9.9190000   8.9540000   3.9230000   7.1950000   9.6240000
   4.8370000   7.3280000   9.0510000   3.0860000   7.1870000   8.9260000
   4.0150000   5.8670000  10.3500000   4.9350000   5.6820000  11.1170000
   3.0670000   4.9650000  10.1170000   2.3060000   5.1580000   9.4960000
   3.0870000   4.1340000  10.6950000   4.6400000  10.6130000  10.4090000
   5.2430000  10.3680000  11.1910000   4.5330000  12.0170000  10.0380000
   3.5120000  12.3190000  10.2620000   4.6580000  12.3240000   8.5690000
   4.0690000  13.3560000   8.1690000   5.4270000  12.8830000  10.9120000
   5.3690000  13.9140000  10.5620000   6.4620000  12.5540000  10.8140000
   5.0280000  12.8550000  12.3870000   5.2120000  11.8580000  12.7820000
   5.6790000  13.5360000  12.9190000   3.3170000  13.2850000  12.7820000
   3.2920000  15.0220000  12.3780000   2.6480000  15.1840000  11.5140000
   2.9100000  15.5840000  13.2300000   4.2980000  15.3730000  12.1480000
   5.3400000  11.5470000   7.7210000   5.2730000  11.8150000   6.2800000
   5.5750000  12.8470000   6.0850000   3.9080000  11.5640000   5.6300000
   3.7800000  11.9090000   4.4570000   6.3110000  10.8490000   5.6700000
   5.8300000   9.9250000   5.3520000   6.8440000  11.3080000   4.8370000
   7.2410000  10.5450000   6.8460000   7.7620000   9.5980000   6.7180000
   7.9600000  11.3350000   6.9980000   6.3140000  10.4910000   8.0270000
   6.8660000  10.6880000   8.9470000   5.8210000   9.5200000   8.0620000
   2.9760000  10.9490000   6.3330000   3.1360000  10.7880000   7.3200000
   1.7160000  10.4870000   5.7690000   1.5860000  10.9070000   4.7730000
   0.5700000  10.9730000   6.6630000   0.7700000  11.4340000   7.7780000
   1.7290000   8.9720000   5.7180000   0.7700000   8.6020000   5.3580000
   1.8540000   8.6040000   6.7380000   2.8430000   8.3660000   4.8470000
   3.8000000   8.7920000   5.1410000   2.9840000   6.9080000   5.0220000
   3.1930000   6.6820000   6.0670000   3.8100000   6.5380000   4.4120000
   2.0670000   6.4040000   4.7160000   2.6220000   8.6870000   3.4080000
   1.6590000   8.2970000   3.0790000   3.4050000   8.2250000   2.8060000
   2.6620000   9.7620000   3.2390000  -0.6710000  10.9130000   6.1680000
  -1.7680000  11.4650000   6.9540000  -1.5450000  12.5170000   7.1280000
  -2.0430000  10.7610000   8.2710000  -1.8130000   9.5580000   8.3650000
  -2.9870000  11.3590000   6.0100000  -3.6710000  12.1990000   6.1330000
  -3.5070000  10.4120000   6.1680000  -2.3320000  11.3540000   4.6130000
  -2.0690000  12.3740000   4.3270000  -2.9880000  10.9080000   3.8650000
  -1.0820000  10.5430000   4.8000000  -1.3160000   9.4780000   4.7580000
  -0.3480000  10.8130000   4.0410000  -2.5870000  11.4520000   9.2570000
  -2.8950000  10.8290000  10.5370000  -2.0530000  10.2360000  10.8950000
  -4.1350000   9.9410000  10.4640000  -5.0020000  10.1190000   9.6270000
  -3.1260000  12.0240000  11.4620000  -3.8240000  11.7930000  12.2670000
  -2.1860000  12.3660000  11.8810000  -3.6840000  13.0800000  10.5160000
  -3.5620000  14.0850000  10.9210000  -4.7370000  12.8770000  10.3160000
  -2.8890000  12.8970000   9.2480000  -1.9620000  13.4690000   9.3040000
  -3.4760000  13.1910000   8.3770000  -4.2130000   9.0340000  11.4180000
  -3.4130000   8.9040000  12.0280000  -5.3970000   8.2450000  11.6950000
  -6.1530000   8.4050000  10.9240000  -5.9540000   8.6650000  13.0440000
  -5.2340000   8.6260000  14.0450000  -5.0490000   6.7710000  11.7320000
  -4.2570000   6.5880000  12.4590000  -5.9260000   6.1860000  12.0030000
  -4.7020000   6.4570000  10.7470000  -7.2440000   8.9900000  13.0840000
  -7.7960000   8.9120000  12.2430000  -7.9260000   9.3640000  14.3290000
  -7.2010000   9.4190000  15.1430000  -8.9910000   8.3240000  14.7360000
  -9.8320000   7.8920000  13.8810000  -8.5800000  10.7540000  14.2120000
  -9.1380000  10.8170000  13.2770000  -9.2970000  10.8720000  15.0260000
  -7.6010000  11.8770000  14.3010000  -7.0380000  12.4250000  13.1650000
  -7.3190000  12.0300000  12.1970000  -7.1670000  12.3620000  15.5120000
  -7.5530000  11.9300000  16.4280000  -6.0860000  13.4470000  13.2240000
  -5.6520000  13.8570000  12.3270000  -6.2240000  13.3820000  15.5780000
  -5.8930000  13.7360000  16.5420000  -5.6950000  13.9120000  14.4350000
  -4.7100000  14.9300000  14.5130000  -4.5210000  15.1460000  15.4280000
  -8.8920000   7.9120000  15.9970000  -8.1580000   8.2870000  16.5900000
  -9.7900000   6.8950000  16.5580000 -10.7630000   6.9250000  16.0660000
  -9.9440000   7.1040000  17.6180000  -9.2210000   5.5000000  16.4170000
  -8.4930000   5.2070000  15.4500000  -9.5420000   4.6080000  17.3590000
 -10.1170000   4.9030000  18.1490000  -8.9040000   3.3190000  17.4170000
  -7.8250000   3.4720000  17.4640000  -9.1470000   2.4970000  16.1760000
  -8.2350000   1.8280000  15.7220000  -9.3310000   2.5790000  18.7150000
  -9.1620000   3.2690000  19.5380000 -10.4030000   2.3720000  18.6670000
  -8.5980000   1.3060000  19.0200000  -7.5260000   1.4990000  19.0640000
  -8.8070000   0.5600000  18.2520000  -9.0830000   0.7950000  20.3820000
  -8.9120000   1.5970000  21.1010000 -10.1690000   0.6780000  20.3320000
  -8.5200000  -0.3920000  20.9720000  -7.7850000  -0.2650000  21.6550000
  -8.9360000  -1.6290000  20.7310000  -9.8290000  -1.8760000  19.7700000
 -10.3000000  -1.1100000  19.3140000 -10.0210000  -2.8190000  19.4780000
  -8.3960000  -2.6240000  21.4080000  -8.6580000  -3.5970000  21.2430000
  -7.7320000  -2.4370000  22.1330000 -10.3400000   2.5400000  15.5900000
 -11.1250000   2.9500000  16.0720000 -10.5470000   1.7340000  14.3770000
 -10.2880000   0.6950000  14.6000000  -9.6550000   2.1710000  13.2160000
  -9.1270000   1.3310000  12.5380000 -12.0140000   1.7570000  13.9590000
 -12.1000000   1.3030000  12.9700000 -12.3470000   2.7940000  13.8790000
 -12.9450000   0.9990000  14.8960000 -12.4940000   0.1710000  15.7310000
 -14.1720000   1.1540000  14.7950000  -9.5810000   3.4680000  12.9660000
 -10.0540000   4.1210000  13.5730000  -8.6760000   3.9720000  11.9230000
  -8.9730000   3.5220000  10.9730000  -7.2350000   3.5780000  12.1680000
  -6.5100000   3.2500000  11.2140000  -8.7960000   5.4810000  11.7800000
  -9.8290000   5.7510000  11.5560000  -8.4910000   5.9680000  12.7060000
  -8.1590000   5.8250000  10.9650000  -6.8210000   3.6210000  13.4110000
  -7.4610000   3.9260000  14.1380000  -5.4650000   3.1890000  13.7700000
  -4.7520000   3.7520000  13.1680000  -5.2740000   1.7210000  13.4030000
  -4.2940000   1.3710000  12.7700000  -5.1430000   3.4610000  15.2320000
  -5.8960000   2.9860000  15.8580000  -3.8020000   2.8510000  15.6230000
  -3.8000000   1.7690000  15.4980000  -3.6140000   3.0470000  16.6780000
  -3.0000000   3.2890000  15.0310000  -5.1640000   4.9750000  15.5410000
  -6.1470000   5.2730000  15.8840000  -4.4590000   5.2150000  16.3370000
  -4.9010000   5.5600000  14.6610000  -6.2290000   0.8800000  13.8170000
  -7.0210000   1.2210000  14.3580000  -6.1360000  -0.5330000  13.5120000
  -5.2090000  -0.9140000  13.9410000  -6.0780000  -0.7960000  12.0120000
  -5.2770000  -1.6230000  11.5410000  -7.2910000  -1.3000000  14.1370000
  -8.2100000  -1.0990000  13.5850000  -7.4260000  -0.9490000  15.1570000
  -7.0160000  -2.8100000  14.1520000  -6.0550000  -2.9750000  14.6460000
  -6.9160000  -3.1550000  13.1210000  -8.0590000  -3.6560000  14.8350000
  -9.0020000  -3.0970000  15.4120000  -7.8520000  -4.8790000  14.8270000
  -6.8890000  -0.0790000  11.2650000  -7.5550000   0.5420000  11.7190000
  -6.9590000  -0.2880000   9.8320000  -7.1010000  -1.3500000   9.6280000
  -5.6600000   0.1320000   9.1510000  -5.2270000  -0.4800000   8.1780000
  -8.1120000   0.4780000   9.2440000  -8.0240000   0.5000000   8.1560000
  -8.0580000   1.5060000   9.6080000  -9.4470000  -0.1240000   9.6000000
  -9.4230000  -0.4880000  10.6270000  -9.6390000  -0.9820000   8.9560000
 -10.5990000   0.8340000   9.4920000 -10.4760000   1.8530000   8.8480000
 -11.7360000   0.5020000  10.1180000 -12.4790000   1.1790000  10.0940000
 -11.7610000  -0.2920000  10.7380000  -5.0160000   1.1540000   9.6990000
  -5.4680000   1.6750000  10.4440000  -3.7260000   1.6110000   9.1920000
  -3.7900000   1.7760000   8.1160000  -2.6580000   0.5570000   9.4540000
  -1.8740000   0.2160000   8.5660000  -3.3290000   2.9490000   9.8750000
  -3.3380000   2.8380000  10.9580000  -4.2740000   3.9440000   9.5050000
  -4.8610000   4.0890000  10.2530000  -1.9430000   3.4080000   9.4460000
  -1.7600000   4.4090000   9.8380000  -1.1780000   2.7380000   9.8350000
  -1.8850000   3.4370000   8.3580000  -2.5960000   0.0500000  10.6760000
  -3.2730000   0.3500000  11.3730000  -1.6140000  -0.9570000  11.0180000
  -0.6170000  -0.5910000  10.7780000  -1.8420000  -2.2060000  10.1640000
  -0.8910000  -2.8170000   9.6960000  -1.7080000  -1.2620000  12.5160000
  -1.1490000  -2.1760000  12.7190000  -2.7520000  -1.4560000  12.7680000
  -1.1650000  -0.1560000  13.4460000  -1.6510000   0.7870000  13.1980000
  -1.4940000  -0.4850000  14.9020000  -0.9880000  -1.4000000  15.2070000
  -2.5710000  -0.6160000  15.0130000  -1.1800000   0.3380000  15.5440000
   0.3400000   0.0360000  13.3080000   0.8620000  -0.8920000  13.5430000
   0.6750000   0.8240000  13.9830000   0.5930000   0.3380000  12.2930000
  -3.0940000  -2.5960000   9.9560000  -3.8580000  -2.1060000  10.4140000
  -3.3870000  -3.7830000   9.1390000  -2.8570000  -4.6370000   9.5630000
  -2.8630000  -3.5910000   7.7200000  -2.3070000  -4.5180000   7.1110000
  -4.8930000  -4.1040000   9.1480000  -5.4550000  -3.2750000   8.7170000
  -5.2290000  -4.2640000  10.1740000  -5.0810000  -5.0060000   8.5650000
  -3.0130000  -2.4090000   7.1730000  -3.5250000  -1.6900000   7.6730000
  -2.4680000  -2.1120000   5.8510000  -2.7990000  -1.1210000   5.5410000
  -2.8270000  -2.8450000   5.1270000  -0.9440000  -2.1310000   5.8650000
  -0.3240000  -2.7200000   4.9910000  -0.3480000  -1.4890000   6.8950000
  -0.9010000  -0.9980000   7.5900000   1.1080000  -1.5080000   6.9860000
   1.5350000  -0.9580000   6.1460000   1.6920000  -2.8880000   6.9740000
   2.6700000  -3.1490000   6.2410000   1.5160000  -0.8110000   8.3180000
   1.3330000   0.2600000   8.2240000   0.8620000  -1.1730000   9.1070000
   2.9580000  -1.0480000   8.8080000   3.1850000  -2.1110000   8.8620000
   3.9180000  -0.3850000   7.8670000   4.8870000  -0.4220000   8.3470000
   3.9070000  -0.8690000   6.8960000   3.6520000   0.6640000   7.7370000
   3.1840000  -0.4850000  10.1850000   2.9970000   0.5880000  10.1990000
   2.5110000  -0.9750000  10.8890000   4.2070000  -0.6800000  10.5060000
   1.1070000  -3.7780000   7.7480000   0.3430000  -3.4920000   8.3540000
   1.6520000  -5.1100000   7.8720000   2.7370000  -5.0510000   7.8780000
   1.3040000  -5.9890000   6.6860000   1.7720000  -7.1290000   6.5970000
   1.1980000  -5.7200000   9.1900000   1.4990000  -6.7680000   9.2210000
   0.1080000  -5.6880000   9.2440000   1.8100000  -5.0320000  10.4140000
   1.0060000  -4.6610000  11.4530000  -0.0580000  -4.8340000  11.3990000
   3.1550000  -4.7880000  10.5040000   3.8200000  -5.1170000   9.7170000
   1.5500000  -4.0220000  12.5610000   0.9000000  -3.6690000  13.3470000
   3.7050000  -4.1740000  11.6040000   4.7730000  -4.0340000  11.6630000
   2.8960000  -3.7870000  12.6210000   3.3210000  -3.2910000  13.4820000
   0.5050000  -5.4850000   5.7390000   0.1210000  -4.5570000   5.8640000
   0.3030000  -6.1730000   4.4620000   0.2390000  -7.2480000   4.6330000
   1.4690000  -5.9260000   3.5250000   1.7360000  -6.7420000   2.6470000
  -0.9990000  -5.7220000   3.8260000  -0.9770000  -4.6540000   3.6160000
  -2.0710000  -6.0200000   4.7440000  -1.9590000  -5.5030000   5.5580000
  -1.3300000  -6.4660000   2.5640000  -2.3360000  -6.1950000   2.2430000
  -0.6340000  -6.1860000   1.7730000  -1.2730000  -7.5420000   2.7230000
   2.1910000  -4.8170000   3.7100000   1.9410000  -4.1890000   4.4650000
   3.2730000  -4.4480000   2.8190000   3.2920000  -5.1500000   1.9860000
   4.6610000  -4.5750000   3.4250000   5.6330000  -4.7160000   2.6740000
   3.0570000  -3.0670000   2.1600000   3.8510000  -2.9140000   1.4280000
   1.7460000  -3.0390000   1.4270000   1.6710000  -3.9030000   0.7670000
   1.6810000  -2.1350000   0.8210000   0.9070000  -3.0510000   2.1250000
   3.0860000  -1.9620000   3.0970000   2.2980000  -2.0660000   3.8430000
   4.0490000  -1.9220000   3.6030000   2.9410000  -1.0200000   2.5660000
   4.7790000  -4.5170000   4.7520000   3.9710000  -4.3790000   5.3530000
   6.0910000  -4.6530000   5.3400000   6.7360000  -5.2050000   4.6630000
   6.0720000  -5.4110000   6.6310000   5.0160000  -5.5810000   7.2700000
   6.7310000  -3.3200000   5.6180000   6.6980000  -2.7640000   4.6840000
   7.7820000  -3.4650000   5.8690000   6.1290000  -2.5780000   6.6640000
   6.3180000  -3.0570000   7.6260000   5.0570000  -2.5590000   6.5000000
   6.7710000  -0.7840000   6.7640000   6.4930000  -0.2530000   5.1590000
   6.5300000   0.8360000   5.1310000   5.5070000  -0.5790000   4.8320000
   7.2570000  -0.6460000   4.4890000   7.2350000  -5.9680000   6.9740000
   8.0250000  -5.8090000   6.3580000   7.5130000  -6.5800000   8.2610000
   6.5890000  -6.7320000   8.8190000   8.4370000  -5.6750000   9.0380000
   9.4150000  -5.1940000   8.4950000   8.2040000  -7.9380000   8.0660000
   7.5140000  -8.6180000   7.5670000   9.0890000  -7.8120000   7.4420000
   8.5930000  -8.5030000   9.3180000   9.5760000  -8.4890000   9.4220000
   8.1330000  -5.5060000  10.3190000   7.3170000  -5.9790000  10.7020000
   9.0700000  -4.8900000  11.2550000   9.7300000  -4.1950000  10.7350000
   9.9100000  -6.0770000  11.8070000   9.4280000  -6.8940000  12.5800000
   8.3540000  -4.1440000  12.3630000   7.6710000  -4.8270000  12.8730000
   7.5320000  -3.0020000  11.7790000   6.8860000  -3.3700000  10.9820000
   8.2130000  -2.2690000  11.3530000   9.3580000  -3.6200000  13.3670000
   9.6590000  -4.4290000  14.0300000  10.2460000  -3.2350000  12.8610000
   8.9570000  -2.8270000  13.9910000   6.6390000  -2.2520000  12.7920000
   6.0400000  -2.9640000  13.3600000   5.9690000  -1.5860000  12.2480000
   7.2330000  -1.6420000  13.4710000  11.1250000  -6.1850000  11.3180000
  11.4670000  -5.4660000  10.6890000  11.9950000  -7.3080000  11.6640000
  11.3910000  -8.2060000  11.8130000  12.7380000  -7.1070000  12.9550000
  13.1820000  -8.1110000  13.5380000  12.9830000  -7.5720000  10.5530000
  13.3880000  -6.6250000  10.1930000  13.8150000  -8.1630000  10.9390000
  12.3860000  -8.3530000   9.3870000  11.2380000  -8.8400000   9.5080000
  13.0540000  -8.5230000   8.3420000  12.9350000  -5.8640000  13.4190000
  12.5500000  -5.0800000  12.9070000  13.6850000  -5.6060000  14.6490000
  13.3310000  -6.2550000  15.4520000  13.4330000  -4.1470000  15.0250000
  13.1490000  -3.2980000  14.1750000  15.1600000  -5.8150000  14.4170000
  15.4240000  -5.5180000  13.4090000  15.7450000  -5.2560000  15.1480000
  15.3820000  -6.8780000  14.5190000  13.5050000  -3.8830000  16.3170000
  13.6890000  -4.6230000  16.9790000  13.4010000  -2.5430000  16.8530000
  13.5850000  -1.7950000  16.0820000  14.4540000  -2.4080000  17.9440000
  14.5850000  -3.3000000  18.8060000  12.0480000  -2.2650000  17.4860000
  11.8860000  -2.9880000  18.2870000  11.9940000  -0.8530000  18.1300000
  12.4170000  -0.1160000  17.4490000  12.5550000  -0.8410000  19.0640000
  10.9620000  -0.5760000  18.3450000  10.9470000  -2.4540000  16.5270000
   9.9990000  -2.2210000  17.0100000  11.0770000  -1.7960000  15.6680000
  10.8990000  -3.4890000  16.1940000  15.2660000  -1.3500000  17.8830000
  15.1440000  -0.6750000  17.1290000  16.1880000  -1.0240000  18.9560000
  15.9940000  -1.6720000  19.8120000  15.9550000   0.4010000  19.3970000
  15.9880000   1.3220000  18.5520000  17.6620000  -1.1950000  18.5820000
  17.9170000  -0.5430000  17.7460000  17.8170000  -2.2340000  18.2880000
  18.5580000  -0.8730000  19.7880000  18.0850000  -1.2910000  20.6810000
  18.5870000   0.2120000  19.9150000  19.9680000  -1.3880000  19.7450000
  20.3950000  -1.9990000  18.7550000  20.6510000  -1.1390000  20.7600000
  15.6890000   0.5950000  20.6840000  15.7160000  -0.1850000  21.3230000
  15.4580000   1.9280000  21.2230000  15.2680000   2.6380000  20.4200000
  16.7190000   2.3590000  21.9550000  17.0730000   1.7640000  22.9700000
  14.2360000   1.9660000  22.1600000  14.3760000   1.2350000  22.9580000
  13.0360000   1.6150000  21.4290000  12.4990000   1.0650000  22.0020000
  14.0180000   3.3300000  22.7840000  13.0570000   3.3540000  23.2970000
  14.8030000   3.5390000  23.5120000  14.0300000   4.0990000  22.0110000
  17.3850000   3.3640000  21.4460000  17.0280000   3.8320000  20.6210000
  18.6100000   3.8810000  22.0620000  19.2140000   3.0370000  22.4010000
  18.3320000   4.7380000  23.2690000  19.0430000   4.6870000  24.2810000
  19.4500000   4.6920000  21.0570000  18.9520000   5.6460000  20.8740000
  20.4150000   4.9180000  21.5130000  19.6970000   4.0180000  19.7580000
  19.2760000   4.6250000  18.5660000  18.7760000   5.5820000  18.6000000
  20.3560000   2.8230000  19.6870000  20.7140000   2.3290000  20.5810000
  19.4540000   4.0050000  17.3420000  19.1550000   4.5180000  16.4450000
  20.5270000   2.2190000  18.4570000  21.0310000   1.2620000  18.4000000
  20.0950000   2.8410000  17.2940000  20.2770000   2.3630000  16.3420000
  17.3260000   5.5980000  23.1520000  16.7790000   5.5900000  22.3010000
  17.0080000   6.5870000  24.1670000  17.5190000   6.3370000  25.0900000
  15.5110000   6.6260000  24.4180000  14.7220000   6.5490000  23.4670000
  17.4430000   8.0020000  23.7310000  17.2190000   8.6950000  24.5400000
  16.8490000   8.3090000  22.8700000  18.8800000   8.1340000  23.4040000
  19.3340000   8.7820000  22.2890000  18.7630000   9.2350000  21.5660000
  19.9890000   7.6780000  24.0310000  19.9980000   7.0910000  24.9400000
  20.6580000   8.7510000  22.2810000  21.2860000   9.2110000  21.5330000
  21.0900000   8.0900000  23.3310000  15.1310000   6.7300000  25.6860000
  15.8340000   6.7160000  26.4230000  13.7730000   6.9040000  26.0760000
  13.2530000   7.3440000  25.2360000  13.7090000   7.8920000  27.2170000
  14.5650000   7.8680000  28.0870000  13.0870000   5.5590000  26.3910000
  13.1710000   4.9430000  25.4940000  11.6170000   5.7630000  26.6780000
  11.4880000   6.2770000  27.6300000  11.2010000   6.4060000  25.9040000
  13.7360000   4.8060000  27.5340000  14.8070000   4.6960000  27.3640000
  13.3080000   3.8100000  27.6330000  13.5920000   5.3380000  28.4780000
  10.7680000   4.4550000  26.6900000   9.8790000   4.5980000  26.0740000
  10.4700000   4.1740000  27.6810000  11.3420000   3.6410000  26.2620000
  12.7350000   8.7770000  27.1850000  12.0400000   8.7350000  26.4470000
  12.5560000   9.7250000  28.2500000  13.2290000  10.5690000  28.1140000
  12.7540000   9.2540000  29.2160000  11.1630000  10.2200000  28.2620000
  10.3420000   9.8670000  27.3900000  10.8190000  11.0350000  29.2440000
  11.4340000  11.1960000  30.0380000   9.4160000  11.4660000  29.3030000
   9.1060000  11.7320000  28.2960000   9.2230000  12.6690000  30.1530000
  10.0030000  12.9180000  31.0580000   8.4820000  10.3830000  29.8340000
   8.5430000   9.5090000  29.1880000   7.4530000  10.7420000  29.8420000
   8.8480000   9.9930000  31.1600000   9.6550000   9.4190000  31.0870000
   8.1770000  13.4410000  29.8340000   7.5990000  13.1540000  29.0490000
   7.7060000  14.5840000  30.6620000   7.7390000  14.3020000  31.7150000
   6.2770000  14.9190000  30.2600000   5.8830000  14.7820000  29.1020000
   8.5290000  15.9050000  30.4710000   8.0750000  16.6710000  31.1020000
   8.4070000  16.2350000  29.4400000   9.9060000  15.8830000  30.7740000
  10.2020000  16.7660000  31.0460000   5.4970000  15.4440000  31.2070000
   5.9040000  15.6260000  32.1140000   4.1780000  15.9810000  30.9530000
   3.7130000  16.2190000  31.9110000   3.2480000  15.0590000  30.2220000
   2.4600000  15.5060000  29.3850000   4.2980000  17.2770000  30.1440000
   4.5950000  17.0550000  29.1190000   3.3380000  17.7930000  30.1150000
   5.3160000  18.2400000  30.7600000   5.3760000  18.3990000  31.9950000
   6.1290000  18.8740000  29.9200000   6.0820000  18.7670000  28.9180000
   6.7740000  19.5460000  30.3160000   3.3450000  13.7880000  30.5120000
   4.0210000  13.4770000  31.1910000   2.4440000  12.8470000  29.9350000
   1.4410000  13.2690000  29.8640000   2.3950000  11.9630000  30.5720000
   2.8710000  12.3920000  28.5540000   2.1170000  11.5680000  27.9690000
   4.0990000  12.7730000  28.0930000   4.6520000  13.4310000  28.6280000
   4.6420000  12.3100000  26.8100000   3.9300000  11.6240000  26.3590000
   5.9560000  11.5410000  27.0120000   6.8400000  11.9770000  27.7390000
   4.8660000  13.4620000  25.8580000   5.2950000  13.0700000  24.9350000
   5.6000000  14.1370000  26.3010000   3.6330000  14.2580000  25.5170000
   3.2270000  14.6910000  26.4310000   3.9610000  15.4120000  24.6010000
   3.0590000  15.9830000  24.3790000   4.6710000  16.0700000  25.0990000
   4.4000000  15.0500000  23.6720000   2.5570000  13.4060000  24.8970000
   1.7410000  14.0330000  24.5420000   2.1640000  12.7190000  25.6430000
   2.9720000  12.8330000  24.0680000   6.0240000  10.4070000  26.3270000
   5.2170000  10.1440000  25.7680000   7.1990000   9.5900000  26.2460000
   7.9190000   9.8940000  27.0020000   7.8280000   9.7650000  24.8570000
   7.1250000   9.6990000  23.8520000   6.8260000   8.0820000  26.4970000
   6.0830000   7.7790000  25.7660000   8.0400000   7.2120000  26.3100000
   7.8200000   6.1950000  26.6320000   8.3310000   7.1750000  25.2610000
   8.8710000   7.5930000  26.9050000   6.2160000   7.8890000  27.8760000
   5.9390000   6.8440000  28.0120000   6.9300000   8.1540000  28.6520000
   5.3100000   8.4900000  27.9830000   9.1390000   9.8930000  24.8340000
   9.6570000   9.8670000  25.7060000   9.8710000  10.0500000  23.5870000
   9.1860000  10.0900000  22.7480000  10.8230000   8.8540000  23.4270000
  11.4610000   8.4420000  24.3970000  10.6910000  11.3570000  23.6140000
  11.4350000  11.2970000  24.4100000  11.2260000  11.4540000  22.6680000
   9.8480000  12.5790000  23.8240000   9.5960000  13.0470000  25.1050000
  10.0100000  12.5130000  25.9500000   9.2920000  13.2880000  22.7810000
   9.4650000  12.9420000  21.7710000   8.8090000  14.1550000  25.3320000
   8.6120000  14.4800000  26.3420000   8.5040000  14.4080000  22.9770000
   8.0710000  14.9420000  22.1450000   8.2690000  14.8470000  24.2650000
   7.4960000  15.9630000  24.4140000   7.4280000  16.2230000  25.3350000
  10.9570000   8.3230000  22.1900000  10.3920000   8.7150000  21.4420000
  11.8450000   7.2090000  21.8930000  12.4790000   6.9960000  22.7500000
  12.7250000   7.5290000  20.7020000  12.1470000   7.8280000  19.6290000
  11.0780000   5.8870000  21.5200000  11.8080000   5.1070000  21.3010000
  10.2280000   6.0530000  20.3880000  10.6730000   6.7270000  19.8390000
  10.1670000   5.4120000  22.6910000   9.3890000   6.1460000  22.8950000
   9.7030000   4.4650000  22.4150000  10.7660000   5.2730000  23.5900000
  14.0360000   7.3750000  20.7910000  14.4320000   7.0850000  21.6820000
  14.9300000   7.4640000  19.6480000  14.4070000   7.9000000  18.7950000
  15.3450000   6.0610000  19.2890000  15.9100000   5.3640000  20.1450000
  16.1420000   8.3600000  19.9720000  16.8170000   7.8330000  20.6480000
  15.7800000   9.2790000  20.4380000  16.8940000   8.7080000  18.7140000
  17.3790000   7.8070000  18.3310000  16.1710000   9.0440000  17.9670000
  17.9510000   9.8070000  18.8870000  18.3780000  10.0690000  20.0370000
  18.3300000  10.4060000  17.8400000  15.0240000   5.6240000  18.0640000
  14.6210000   6.2720000  17.3880000  15.1330000   4.2220000  17.7040000
  15.9230000   3.7800000  18.3140000  15.5820000   3.9980000  16.2990000
  15.6230000   4.9100000  15.4850000  13.8970000   3.4580000  17.9800000
  14.0860000   2.3940000  17.9150000  13.6860000   3.6450000  19.0350000
  12.7960000   3.6220000  17.3170000  12.6400000   4.6790000  17.0970000
  12.8570000   3.0840000  16.3690000  11.4830000   3.0850000  18.2540000
  11.1940000   3.8200000  19.0050000  11.7170000   2.1270000  18.7230000
  10.5450000   2.8940000  17.2440000  10.7340000   2.1290000  16.5880000
   9.5350000   3.6890000  16.9440000   9.2090000   4.7480000  17.6520000
   9.6430000   4.9120000  18.5300000   8.6910000   5.4350000  17.1600000
   8.8140000   3.3900000  15.8900000   9.0850000   2.5810000  15.3220000
   8.0550000   4.0020000  15.5700000  15.8920000   2.7320000  16.0080000
  15.8610000   2.0540000  16.7660000  15.9370000   2.2290000  14.6560000
  15.6010000   3.0030000  13.9770000  14.9950000   1.0690000  14.5440000
  14.9900000   0.1700000  15.3880000  17.3550000   1.7940000  14.2240000
  17.7830000   1.1800000  15.0170000  17.3580000   0.9720000  12.9460000
  18.3870000   0.7970000  12.6380000  16.8860000   0.0030000  13.1080000
  16.8290000   1.5080000  12.1570000  18.2380000   3.0250000  14.0510000
  18.1130000   3.6900000  14.8930000  19.2830000   2.7270000  13.9680000
  17.9440000   3.5680000  13.1520000  14.1510000   1.0830000  13.4910000
  14.1770000   1.8700000  12.8510000  13.2980000  -0.0550000  13.1590000
  13.3640000  -0.8180000  13.9330000  13.8000000  -0.6180000  11.8610000
  14.0100000   0.1140000  10.8990000  11.8340000   0.3300000  13.0140000
  11.7430000   1.1070000  12.2530000  11.2790000  -0.5480000  12.6750000
  11.1870000   0.8230000  14.2960000  11.8330000   1.0160000  15.3160000
   9.9290000   1.0550000  14.3020000  14.0070000  -1.9320000  11.8310000
  13.7450000  -2.4760000  12.6480000  14.3990000  -2.6270000  10.5920000
  14.9740000  -1.9570000   9.9520000  13.1570000  -3.0440000   9.8720000
  12.3540000  -3.8300000  10.4210000  15.2560000  -3.8690000  10.8960000
  14.6840000  -4.5750000  11.4950000  15.6460000  -4.5470000   9.6040000
  16.1100000  -3.8310000   8.9240000  16.3490000  -5.3540000   9.8060000
  14.7740000  -4.9870000   9.1200000  16.4870000  -3.4450000  11.6830000
  16.5740000  -2.3590000  11.7360000  16.4390000  -3.8230000  12.6930000
  17.3990000  -3.8030000  11.2060000  12.9020000  -2.4960000   8.6880000
  13.5940000  -1.8430000   8.3320000  11.7110000  -2.6840000   7.8750000
  10.9740000  -3.2500000   8.4460000  12.0340000  -3.4710000   6.6140000
  12.9460000  -3.1240000   5.8910000  11.0780000  -1.3420000   7.5060000
  11.8910000  -0.6500000   7.2790000  10.5490000  -1.4730000   6.5620000
  10.1140000  -0.6100000   8.4600000  10.0080000   0.4010000   8.0660000
   8.7430000  -1.2120000   8.4790000   8.6800000  -1.8840000   7.6310000
   8.0520000  -0.4190000   8.7690000   8.7070000  -1.9220000   9.2990000
  10.6830000  -0.4940000   9.8440000  10.6880000  -1.4640000  10.3400000
  10.0830000   0.2040000  10.4280000  11.7010000  -0.1150000   9.7830000
  11.2430000  -4.5140000   6.3640000  10.5370000  -4.7560000   7.0570000
  11.4250000  -5.3630000   5.2110000  12.2610000  -5.0190000   4.6030000
  10.1640000  -5.3020000   4.3620000   9.0440000  -5.5680000   4.8410000
  11.7190000  -6.7970000   5.6370000  12.6630000  -6.8080000   6.1800000
  10.9440000  -7.1140000   6.3360000  11.7790000  -7.7850000   4.4990000
  10.7780000  -7.9300000   4.0920000  12.4120000  -7.3780000   3.7080000
  12.3520000  -9.1470000   4.9030000  12.2790000  -9.8450000   4.0670000
  13.4130000  -9.0130000   5.1300000  11.7020000  -9.6560000   6.0790000
  12.1190000  -9.3890000   6.9810000  10.5840000 -10.3870000   6.0940000
   9.9630000 -10.7500000   4.9680000   9.9970000 -10.0600000   4.2410000
  10.1720000 -11.6840000   4.6600000  10.1170000 -10.7860000   7.2510000
  10.5420000 -10.3920000   8.0960000   9.2450000 -11.2780000   7.2970000
  10.3250000  -4.9280000   3.1070000  11.2680000  -4.7670000   2.7640000
   9.2220000  -4.8250000   2.1730000   8.3710000  -4.3590000   2.6750000
   8.8350000  -6.2270000   1.7160000   9.6740000  -6.9950000   1.2020000
   9.6110000  -3.9600000   0.9980000   8.7180000  -3.5930000   0.4990000
  10.2060000  -4.5350000   0.3070000  10.1790000  -3.1070000   1.3540000
   7.5950000  -6.6020000   1.9220000   6.9350000  -5.9430000   2.3230000
   7.1330000  -7.9060000   1.5310000   7.8470000  -8.6420000   1.9010000
   7.1510000  -8.0960000   0.0000000   7.5190000  -9.1860000  -0.4580000
   5.7650000  -8.2390000   2.1500000   5.4700000  -9.2320000   1.8090000
   5.0200000  -7.5330000   1.7830000   5.7280000  -8.2260000   3.6820000
   5.9500000  -7.2140000   4.0120000   4.3430000  -8.5470000   4.1980000
   3.6290000  -7.8320000   3.8010000   4.0480000  -9.5520000   3.8990000
   4.3190000  -8.4720000   5.2860000   6.7830000  -9.1160000   4.2890000
   6.6820000 -10.1290000   3.9000000   7.7760000  -8.7230000   4.0790000
   6.6530000  -9.1350000   5.3710000   6.8100000  -7.1020000  -0.8250000
   6.8550000  -7.3090000  -2.2900000   6.2280000  -8.1590000  -2.5630000
   8.2540000  -7.4940000  -2.8810000   8.3780000  -8.0860000  -3.9600000
   6.2610000  -6.0200000  -2.8430000   7.0580000  -5.3230000  -3.1110000
   5.6410000  -6.2150000  -3.7190000   5.4910000  -5.4390000  -1.7720000
   5.4320000  -4.3540000  -1.8640000   4.4830000  -5.8570000  -1.7970000
   6.1330000  -5.8370000  -0.4960000   6.8690000  -5.0870000  -0.2050000
   5.3780000  -5.9590000   0.2800000   9.2920000  -6.9750000  -2.2370000
   9.1500000  -6.4800000  -1.3710000  10.6120000  -6.9780000  -2.8290000
  10.5870000  -7.4030000  -3.8320000  11.6830000  -7.7720000  -2.0680000
  12.7540000  -8.0230000  -2.6290000  11.1040000  -5.5220000  -2.9790000
  12.0230000  -5.5190000  -3.5670000  11.3770000  -4.9780000  -1.6820000
  11.4850000  -4.0060000  -1.8180000  10.0710000  -4.6430000  -3.6720000
   9.5130000  -4.0470000  -2.9510000   9.3780000  -5.2340000  -4.2690000
  10.5800000  -3.9650000  -4.3540000  11.4510000  -8.0950000  -0.7950000
  10.5760000  -7.8130000  -0.3690000  12.4240000  -8.7750000   0.0390000
  12.8940000  -9.5790000  -0.5290000  11.9100000  -9.2080000   0.8960000
  13.5290000  -7.8510000   0.5660000  14.4260000  -8.2930000   1.3180000
  13.5120000  -6.5750000   0.1600000  12.7510000  -6.2530000  -0.4280000
  14.5580000  -5.6410000   0.5470000  15.5090000  -6.1710000   0.6300000
  14.2430000  -5.0300000   1.9180000  13.0710000  -4.8300000   2.2630000
  14.6840000  -4.5590000  -0.5190000  13.7060000  -4.1110000  -0.6930000
  15.3560000  -3.7830000  -0.1480000  15.2400000  -5.0830000  -1.8430000
  14.5230000  -5.7770000  -2.2850000  16.1630000  -5.6280000  -1.6400000
  15.5530000  -3.9650000  -2.8770000  14.6350000  -3.4240000  -3.1190000
  16.2510000  -3.2620000  -2.4190000  16.1700000  -4.5260000  -4.1690000
  15.3850000  -5.0490000  -4.7250000  16.9310000  -5.2580000  -3.8880000
  16.7670000  -3.5070000  -5.0050000  16.0010000  -2.9040000  -5.3610000
  17.3760000  -2.8930000  -4.4840000  17.2270000  -3.8860000  -5.8190000
  15.2790000  -4.7430000   2.6740000  16.2070000  -4.8950000   2.3140000
  15.1440000  -4.2130000   4.0220000  14.1040000  -4.0390000   4.2360000
  15.9090000  -2.8820000   4.1320000  16.8200000  -2.5630000   3.3430000
  15.7190000  -5.2030000   5.0350000  16.7510000  -5.4390000   4.7680000
  15.7220000  -4.7300000   6.0190000  14.9760000  -6.4070000   5.1320000
  14.8340000  -6.6190000   6.0620000  15.5200000  -2.1150000   5.1500000
  14.7190000  -2.4070000   5.7040000  16.1040000  -0.8300000   5.4440000
  17.1450000  -0.8230000   5.1170000  16.0650000  -0.5840000   6.9370000
  15.0560000  -0.8450000   7.6040000  15.3490000   0.2550000   4.6920000
  14.3060000   0.2490000   5.0130000  15.3720000   0.0240000   3.6270000
  15.9320000   1.6420000   4.8800000  17.1160000   2.0070000   4.2820000
  17.6470000   1.3010000   3.6590000  15.2690000   2.6070000   5.6380000
  14.3270000   2.3520000   6.1040000  17.6390000   3.2980000   4.4670000
  18.5660000   3.6040000   4.0070000  15.7760000   3.8600000   5.8230000
  15.2650000   4.5900000   6.4240000  16.9620000   4.1800000   5.2680000
  17.5060000   5.4400000   5.4690000  16.8920000   6.1500000   5.5980000
  17.1430000  -0.0240000   7.4630000  17.9040000   0.2230000   6.8500000
  17.2390000   0.3990000   8.8540000  16.5850000  -0.2130000   9.4800000
  16.7890000   1.8450000   8.9640000  17.5050000   2.7590000   8.5470000
  18.6710000   0.2790000   9.3770000  18.7440000   0.8090000  10.3250000
  19.3650000   0.7460000   8.6780000  19.0930000  -1.1530000   9.5980000
  18.4970000  -2.1000000   9.0580000  20.1060000  -1.3250000  10.4440000
  20.3770000  -2.2670000  10.6610000  20.6270000  -0.5450000  10.7910000
  15.5850000   2.0570000   9.4810000  15.0410000   1.2680000   9.8240000
  14.9710000   3.3840000   9.5350000  15.4140000   4.0100000   8.7610000
  15.1800000   4.0400000  10.8810000  14.7530000   3.5390000  11.9090000
  13.4910000   3.2310000   9.2460000  13.3780000   2.6840000   8.3090000
  13.0550000   2.6060000  10.0280000  12.6480000   4.5170000   9.1500000
  12.7550000   5.0790000  10.0750000  13.1530000   5.3990000   8.0270000
  12.4970000   6.2590000   7.9100000  13.1470000   4.8420000   7.0950000
  14.1520000   5.7720000   8.2440000  11.1720000   4.1830000   8.9900000
  10.5930000   5.0950000   8.8800000  10.8090000   3.6490000   9.8640000
  11.0260000   3.5570000   8.1100000  15.7940000   5.2030000  10.8630000
  16.1670000   5.5410000   9.9890000  16.0010000   6.0250000  12.0600000
  16.2400000   5.3890000  12.9130000  14.7390000   6.8230000  12.3600000
  14.2610000   7.5710000  11.5180000  17.1760000   6.9720000  11.8190000
  16.9560000   7.6060000  10.9580000  17.3060000   7.6090000  12.6950000
  18.3780000   6.2800000  11.5880000  18.9910000   6.8640000  11.1340000
  14.2200000   6.6720000  13.5810000  14.6900000   6.0620000  14.2470000
  12.9600000   7.2580000  13.9760000  12.6280000   7.9900000  13.2400000
  13.0970000   7.9500000  15.3270000  13.7150000   7.3870000  16.2570000
  11.8670000   6.1390000  14.1090000  12.2270000   5.4190000  14.8460000
  11.6960000   5.4010000  12.7940000  12.6660000   5.1520000  12.3760000
  11.1710000   6.0300000  12.0750000  10.5460000   6.6990000  14.6210000
   9.7760000   5.9300000  14.5900000  10.6330000   7.0200000  15.6580000
  10.2290000   7.5380000  14.0000000  10.9760000   4.0780000  12.9250000
   9.9050000   4.2370000  13.0530000  11.3670000   3.5270000  13.7800000
  11.1390000   3.4790000  12.0330000  12.4380000   9.0780000  15.4720000
  11.9540000   9.4640000  14.6660000  12.1840000   9.6940000  16.7800000
  12.5780000   9.0440000  17.5570000  10.6710000   9.7570000  16.9000000
  10.0000000  10.2660000  16.0080000  12.8660000  11.0550000  16.8680000
  13.8970000  10.9160000  16.5520000  12.3830000  11.7350000  16.1650000
  12.9070000  11.7000000  18.2510000  11.8850000  11.8190000  18.6010000
  13.6420000  10.8980000  19.2840000  13.6020000  11.4120000  20.2420000
  14.6810000  10.7760000  18.9850000  13.1880000   9.9320000  19.4120000
  13.5440000  13.0830000  18.1750000  14.6140000  12.9910000  17.9940000
  13.1000000  13.6290000  17.3530000  13.3750000  13.6250000  19.1040000
  10.1520000   9.1820000  17.9740000  10.7780000   8.7940000  18.6700000
   8.7210000   9.1000000  18.1770000   8.4000000   8.0630000  18.0970000
   8.2000000   9.6680000  17.4110000   8.2880000   9.6170000  19.5140000
   9.0480000   9.6890000  20.4830000   7.0260000   9.9970000  19.5760000
   6.4700000   9.9270000  18.7260000   6.3800000  10.4980000  20.7750000
   7.0370000  10.3090000  21.6160000   5.0870000   9.7500000  21.0190000
   4.3330000   9.4420000  20.0930000   6.1720000  12.0380000  20.7120000
   7.1590000  12.4850000  20.5860000   5.3450000  12.4740000  19.5330000
   5.2820000  13.5600000  19.5230000   5.8180000  12.1600000  18.6030000
   4.3400000  12.0600000  19.5920000   5.6250000  12.5660000  22.0200000
   5.6430000  13.6560000  22.0010000   4.5990000  12.2350000  22.1730000
   6.2520000  12.2260000  22.8460000   4.8420000   9.4470000  22.3000000
   5.5360000   9.7030000  22.9960000   3.6800000   8.6690000  22.7490000
   2.9780000   8.5320000  21.9310000   3.0210000   9.3780000  23.9040000
   3.6760000   9.8420000  24.8240000   4.1110000   7.2860000  23.2790000
   4.7270000   7.4160000  24.1640000   3.2190000   6.7380000  23.5830000
   4.8870000   6.4520000  22.2930000   6.2090000   6.7030000  22.0200000
   6.7180000   7.5030000  22.5370000   4.2780000   5.4230000  21.6310000
   3.2340000   5.2080000  21.8090000   6.9220000   5.9430000  21.1120000
   7.9460000   6.1810000  20.9070000   4.9860000   4.6550000  20.7060000
   4.4880000   3.8650000  20.1630000   6.3050000   4.9440000  20.4450000
   6.8510000   4.3790000  19.7030000   1.7000000   9.4540000  23.8500000
   1.2210000   9.0240000  23.0650000   0.9080000   9.9440000  24.9500000
   1.5400000  10.3660000  25.7330000   0.1220000   8.7850000  25.5190000
  -0.5580000   8.0890000  24.7710000  -0.0410000  11.0080000  24.4700000
   0.5120000  11.7990000  23.9650000  -0.7320000  10.5700000  23.7480000
  -0.8390000  11.6110000  25.6460000  -1.2890000  10.8350000  26.2640000
  -0.1720000  12.1950000  26.2810000  -1.9150000  12.4400000  25.1190000
  -2.9050000  11.8980000  24.6510000  -1.7510000  13.7150000  25.1470000
  -0.9370000  14.1190000  25.5760000  -2.5120000  14.2740000  24.7970000
   0.2860000   8.5490000  26.8160000   0.8540000   9.1750000  27.3760000
  -0.4400000   7.4600000  27.5210000  -1.0230000   6.9070000  26.7940000
  -1.3990000   8.0410000  28.5340000  -1.0640000   8.9950000  29.2350000
   0.5050000   6.4870000  28.2010000   1.3030000   7.0340000  28.7080000
  -0.0530000   5.9490000  28.9690000   1.1160000   5.4280000  27.2570000
   0.2820000   4.9900000  26.7070000   2.0730000   6.0080000  26.1780000
   2.5970000   5.2010000  25.6690000   2.8040000   6.6650000  26.6510000
   1.5070000   6.5520000  25.4300000   1.7630000   4.2690000  27.9430000
   1.0460000   3.7780000  28.5990000   2.1220000   3.5460000  27.2130000
   2.6030000   4.6220000  28.5430000  -2.6090000   7.5080000  28.5430000
  -2.8150000   6.7660000  27.8790000  -3.6340000   7.8680000  29.5310000
  -3.2440000   8.5790000  30.2600000  -4.0120000   6.5630000  30.2370000
  -4.5050000   5.6320000  29.6010000  -4.8260000   8.4940000  28.8260000
  -5.2570000   7.7720000  28.1330000  -4.3760000   9.6490000  28.0960000
  -3.5080000   9.4560000  27.7460000  -5.8970000   8.9630000  29.7820000
  -5.4780000   9.6690000  30.4990000  -6.3260000   8.1140000  30.3150000
  -6.6910000   9.4550000  29.2190000  -3.7790000   6.4900000  31.5510000
  -3.4170000   7.2970000  32.0350000  -4.0740000   5.2590000  32.3270000
  -3.5820000   5.3410000  33.2960000  -3.4800000   4.0120000  31.6540000
  -4.1060000   2.9470000  31.5730000  -5.5830000   5.1090000  32.5950000
  -5.7450000   4.2030000  33.1810000  -6.1230000   5.0180000  31.6520000
  -6.1310000   6.2960000  33.3790000  -5.9350000   7.2110000  32.8160000
  -5.5750000   6.3710000  34.3170000  -7.6070000   6.2500000  33.6980000
  -8.1560000   5.1580000  33.7570000  -8.2410000   7.3300000  33.8630000
  -2.2700000   4.1780000  31.1060000  -1.8130000   5.0740000  31.2050000
  -1.5110000   3.0770000  30.5440000  -1.6130000   2.2060000  31.1930000
  -0.4590000   3.3620000  30.5390000  -1.8720000   2.6480000  29.1370000
  -1.3380000   1.6310000  28.6760000  -2.7770000   3.3840000  28.5110000
  -3.2300000   4.1450000  29.0130000  -3.1830000   3.0910000  27.1280000
  -2.6330000   2.2280000  26.7540000  -2.7800000   4.2630000  26.2150000
  -2.7930000   5.4420000  26.5960000  -4.6750000   2.8370000  26.9800000
  -4.9200000   2.7090000  25.9260000  -5.2140000   3.7120000  27.3480000
  -5.1710000   1.5930000  27.7650000  -4.8570000   1.6600000  28.8080000
  -6.2620000   1.5710000  27.7350000  -4.6350000   0.3070000  27.1390000
  -4.9820000   0.2540000  26.1040000  -3.5460000   0.3640000  27.1280000
  -5.0070000  -0.9630000  27.8380000  -6.0900000  -1.1020000  27.7710000
  -4.7260000  -0.8870000  28.8930000  -4.2850000  -2.0940000  27.1780000
  -4.5460000  -2.9830000  27.5780000  -4.5210000  -2.1360000  26.1770000
  -3.2840000  -1.9820000  27.2490000  -2.4450000   3.9480000  24.9630000
  -2.4440000   2.9740000  24.6810000  -1.9430000   4.9590000  24.0380000
  -1.2430000   5.6020000  24.5750000  -3.0660000   5.8180000  23.5030000
  -4.0200000   5.3240000  22.8710000  -1.1680000   4.3260000  22.8690000
  -1.8380000   3.6270000  22.3650000   0.0390000   3.5330000  23.3780000
  -0.2660000   2.8740000  24.1900000   0.7900000   4.2190000  23.7720000
  -0.7380000   5.3820000  21.8390000  -0.1190000   6.1400000  22.3200000
  -1.6030000   5.8540000  21.3720000  -0.1710000   4.9180000  21.0340000
   0.6740000   2.6490000  22.3210000   1.3870000   1.9760000  22.7960000
   1.2100000   3.2460000  21.5850000  -0.0870000   2.0510000  21.8200000
  -2.9510000   7.1040000  23.7650000  -2.2070000   7.4230000  24.3790000
  -3.8420000   8.1000000  23.2520000  -4.7260000   7.6160000  22.8380000
  -3.2510000   8.9100000  22.0820000  -3.9810000   9.6280000  21.3960000
  -4.3870000   9.0320000  24.3960000  -4.9690000   9.8570000  23.9830000
  -3.3360000   9.4970000  25.1850000  -3.2400000  10.4550000  24.9670000
  -5.1860000   8.2870000  25.3810000  -5.6810000   8.9890000  26.0490000
  -5.9670000   7.7390000  24.8580000  -4.5740000   7.5830000  25.9450000
  -1.9630000   8.8050000  21.8570000  -1.3930000   8.2560000  22.4880000
  -1.3470000   9.4180000  20.6850000  -1.2230000  10.4890000  20.8330000
  -1.9870000   9.2580000  19.8200000   0.0030000   8.7720000  20.4390000
   0.6950000   8.4360000  21.3630000   0.3190000   8.5950000  19.1660000
  -0.3860000   8.7500000  18.4530000   1.6240000   8.0340000  18.7640000
   2.3770000   8.2680000  19.5110000   2.0060000   8.6870000  17.4380000
   1.2990000   8.5110000  16.4440000   1.5570000   6.5170000  18.6240000
   0.7180000   6.2630000  17.9740000   1.3550000   6.0910000  19.6060000
   2.7940000   5.8560000  18.0840000   4.0690000   6.3240000  18.0910000
   4.4060000   7.2610000  18.5170000   2.8220000   4.5850000  17.4180000
   4.8830000   5.4170000  17.4610000   5.8420000   5.6240000  17.1690000
   4.1480000   4.3330000  17.0480000   1.8440000   3.6470000  17.0980000
   0.8150000   3.8700000  17.3220000   4.5180000   3.2050000  16.3750000
   5.5480000   3.0600000  16.0780000   2.2100000   2.4960000  16.4240000
   1.4610000   1.7710000  16.1390000   3.5600000   2.2890000  16.0760000
   3.8380000   1.3940000  15.5360000   3.1070000   9.4450000  17.4330000
   3.6560000   9.5360000  18.2850000   3.5810000  10.0720000  16.2140000
   3.0310000   9.6970000  15.3630000   5.0610000   9.7080000  16.0250000
   5.8850000   9.9920000  16.8990000   3.4100000  11.5880000  16.2690000
   3.9190000  11.9700000  17.1520000   3.8800000  12.0320000  15.3910000
   1.9520000  11.9950000  16.3040000   1.4880000  11.7080000  15.3620000
   1.4390000  11.4560000  17.0990000   1.7290000  13.4640000  16.5180000
   0.6650000  13.6820000  16.4240000   2.2380000  14.0070000  15.7180000
   2.2290000  13.9550000  17.7930000   3.0950000  14.5040000  17.7840000
   1.6040000  13.8080000  18.9630000   0.4390000  13.1520000  19.0470000
   0.0200000  12.8050000  18.1990000  -0.0280000  13.0790000  19.9290000
   2.1580000  14.3110000  20.0560000   3.0400000  14.8320000  19.9410000
   1.7310000  14.2320000  20.9550000   5.3940000   9.1150000  14.8760000
   4.6660000   8.9650000  14.1860000   6.7830000   8.7810000  14.5260000
   7.4460000   8.9130000  15.3820000   7.2500000   9.7040000  13.4190000
   6.5880000   9.8460000  12.3770000   6.8480000   7.3310000  14.0700000
   5.9580000   7.0910000  13.4840000   7.7070000   7.2220000  13.4060000
   7.0240000   6.3100000  15.1680000   7.3740000   6.6660000  16.3130000
   6.8210000   5.0910000  14.8870000   8.4090000  10.2870000  13.6230000
   8.8940000  10.1080000  14.4980000   9.0650000  11.2090000  12.7030000
   8.3730000  11.4890000  11.9080000  10.2900000  10.5520000  12.0740000
  11.1520000   9.9970000  12.7790000   9.4870000  12.4900000  13.4330000
  10.1130000  12.2270000  14.2860000  10.1170000  13.0680000  12.7560000
   8.3650000  13.3870000  13.9190000   7.5470000  13.0310000  14.9880000
   7.6940000  12.0830000  15.4880000   8.1630000  14.6240000  13.3030000
   8.7920000  14.9340000  12.4780000   6.5610000  13.9010000  15.4460000
   5.9350000  13.6310000  16.2840000   7.1730000  15.5050000  13.7820000
   7.0240000  16.4730000  13.3370000   6.4030000  15.1220000  14.8530000
   5.4330000  16.0290000  15.2760000   5.0600000  15.7680000  16.1480000
  10.3710000  10.6320000  10.7580000   9.6380000  11.0910000  10.2330000
  11.4360000  10.0220000   9.9750000  12.4050000  10.3300000  10.3690000
  11.3290000  10.5070000   8.5320000  10.3490000  11.1510000   8.1340000
  11.3480000   8.4730000  10.0290000  12.1660000   8.0450000   9.4510000
  11.4920000   8.1390000  11.0550000  10.0320000   7.9250000   9.5160000
   9.8720000   7.5990000   8.1890000  10.6930000   7.7420000   7.5050000
   8.9500000   7.7070000  10.3490000   9.0370000   7.9320000  11.4020000
   8.6840000   7.0850000   7.7080000   8.5970000   6.8290000   6.6640000
   7.7730000   7.2010000   9.8730000   6.9540000   7.0250000  10.5550000
   7.6660000   6.8790000   8.5420000   6.7520000   6.4440000   8.1660000
  12.3190000  10.1390000   7.7330000  13.0810000   9.5890000   8.0980000
  12.3620000  10.4490000   6.3210000  11.7510000  11.3280000   6.1170000
  11.7930000   9.2680000   5.5190000  12.3040000   8.1460000   5.5820000
  13.7870000  10.7580000   5.8770000  14.2030000  11.5110000   6.5300000
  14.3950000   9.8600000   5.9920000  13.8180000  11.2100000   4.4540000
  13.3250000  12.3170000   4.1900000  14.2600000  10.4600000   3.5490000
  10.7720000   9.4970000   4.6980000  10.3750000  10.4390000   4.6450000
  10.1400000   8.4170000   3.9660000  10.1380000   7.5290000   4.5990000
  10.9010000   8.0630000   2.6880000  10.9680000   6.8870000   2.3130000
   8.6920000   8.7920000   3.6460000   8.1980000   9.0480000   4.5790000
   8.6960000   9.6870000   3.0220000   7.8600000   7.7080000   2.9520000
   8.3360000   7.4540000   2.0090000   7.7410000   6.4420000   3.8050000
   8.7220000   5.9900000   3.9400000   7.0930000   5.7220000   3.3160000
   7.3050000   6.6900000   4.7700000   6.4810000   8.2340000   2.6300000
   5.9380000   7.4920000   2.0410000   5.9310000   8.4270000   3.5500000
   6.5460000   9.1560000   2.0590000  11.4270000   9.0460000   1.9610000
  11.4750000   9.9700000   2.3770000  11.9900000   8.7920000   0.6340000
  11.2460000   8.2760000   0.0240000  13.1770000   7.8560000   0.6880000
  13.2960000   6.9850000  -0.1880000  12.3720000  10.0880000  -0.0450000
  11.4640000  10.6520000  -0.2610000  12.9740000  10.6670000   0.6580000
  13.1510000   9.8890000  -1.3220000  14.0890000   9.3750000  -1.1090000
  12.5730000   9.2590000  -2.0010000  13.5250000  11.1450000  -2.0420000
  14.1750000  10.8790000  -2.8790000  12.6040000  11.5790000  -2.4340000
  14.1890000  12.0580000  -1.1790000  14.5310000  11.7210000  -0.2890000
  14.2410000  13.3280000  -1.4190000  13.7570000  13.8210000  -2.5790000
  13.3520000  13.2240000  -3.2580000  13.8190000  14.8360000  -2.7470000
  14.7620000  14.1320000  -0.5290000  14.9110000  15.1240000  -0.7560000
  15.0260000  13.7980000   0.3830000  14.1000000   8.0130000   1.6260000
  14.0390000   8.7670000   2.3140000  15.2620000   7.1450000   1.6220000
  15.7760000   7.2070000   0.6610000  14.8320000   5.6770000   1.8280000
  15.4090000   4.7650000   1.2680000  16.2530000   7.5600000   2.7380000
  15.6970000   7.4310000   3.6690000  17.0260000   6.7900000   2.7550000
  16.9810000   8.8640000   2.8650000  16.3210000   9.6990000   2.6560000
  17.7510000   8.8930000   2.0900000  17.6400000   9.0070000   4.2610000
  18.9200000   8.8600000   4.3310000  16.8310000   9.2100000   5.2270000
  13.8790000   5.4630000   2.6900000  13.4700000   6.2640000   3.1520000
  13.3060000   4.1380000   2.9310000  14.0960000   3.4600000   3.2540000
  12.7110000   3.5890000   1.6290000  13.0190000   2.4740000   1.2050000
  12.2680000   4.2850000   4.0270000  11.5870000   5.0880000   3.7640000
  12.7860000   4.5950000   4.9320000  11.4670000   3.1080000   4.3470000
  11.8700000   1.8050000   4.1540000  12.8160000   1.5950000   3.6770000
  10.2910000   3.3420000   5.0230000   9.9830000   4.3530000   5.2510000
  11.0810000   0.7660000   4.5030000  11.4020000  -0.2480000   4.3130000
   9.5000000   2.2990000   5.4000000   8.5720000   2.4860000   5.9220000
   9.8870000   1.0120000   5.1350000   9.2620000   0.1880000   5.4420000
  11.8500000   4.3660000   0.9870000  11.6190000   5.2780000   1.3680000
  11.2310000   3.9270000  -0.2620000  10.5950000   3.0580000  -0.0830000
  12.2480000   3.5380000  -1.3040000  12.0440000   2.5560000  -2.0320000
  10.3950000   5.0360000  -0.8560000  10.1380000   4.7330000  -1.8740000
  10.9960000   5.9430000  -0.9240000   9.1380000   5.3600000  -0.1590000
   9.3080000   5.6550000   0.8720000   8.5980000   4.4790000  -0.2420000
   8.2900000   6.3990000  -0.9180000   8.6540000   6.7810000  -1.9760000
   7.2430000   6.7850000  -0.4240000  13.2770000   4.3390000  -1.4480000
  13.3420000   5.1690000  -0.8660000  14.3310000   4.0950000  -2.4520000
  13.8640000   3.9110000  -3.4210000  15.1060000   2.8420000  -2.1170000
  15.4850000   2.0770000  -3.0170000  15.2800000   5.3210000  -2.5940000
  16.1330000   5.0410000  -3.2140000  15.6430000   5.6090000  -1.6060000
  14.5780000   6.4860000  -3.2440000  13.6870000   6.7430000  -2.6720000
  14.2340000   6.1570000  -4.2280000  15.4100000   7.7520000  -3.4310000
  16.4820000   7.8820000  -2.8290000  14.9440000   8.6210000  -4.1430000
  15.3530000   2.6000000  -0.8610000  15.0610000   3.2640000  -0.1510000
  16.1150000   1.4250000  -0.4830000  17.0240000   1.3860000  -1.0860000
  15.3620000   0.1090000  -0.7120000  15.9690000  -0.9300000  -1.0050000
  16.5100000   1.5130000   0.9610000  17.0670000   0.6210000   1.2490000
  17.1380000   2.3920000   1.1160000  15.6230000   1.6030000   1.5890000
  14.0520000   0.1140000  -0.5620000  13.6020000   0.9890000  -0.3090000
  13.2590000  -1.1130000  -0.6320000  13.9390000  -1.9550000  -0.6690000
  12.4180000  -1.2530000  -1.8890000  11.7230000  -2.2590000  -2.0570000
  12.3970000  -1.3360000   0.6200000  12.0030000  -2.3460000   0.5510000
  13.2660000  -1.2990000   1.8670000  12.6840000  -1.6210000   2.7290000
  13.6300000  -0.2870000   2.0430000  14.1160000  -1.9700000   1.7510000
  11.2300000  -0.3770000   0.7420000  11.5720000   0.6490000   0.7820000
  10.6620000  -0.5970000   1.6450000  10.5680000  -0.4830000  -0.1160000
  12.4530000  -0.2600000  -2.7680000  13.0310000   0.5530000  -2.5820000
  11.7910000  -0.3420000  -4.0820000  12.0030000   0.5920000  -4.6050000
  10.2990000  -0.4150000  -3.9640000   9.6340000  -1.1590000  -4.6830000
  12.3440000  -1.4990000  -4.9580000  12.3050000  -2.4520000  -4.4340000
  11.7380000  -1.5910000  -5.8610000  13.7530000  -1.2560000  -5.4320000
  14.3130000  -0.1220000  -5.3560000  14.3880000  -2.2160000  -5.9480000
   9.7250000   0.3810000  -3.0800000  10.3040000   1.0110000  -2.5340000
   8.2840000   0.4500000  -2.9790000   7.8100000   0.0600000  -3.8780000
   7.8360000   1.9120000  -2.7490000   8.2790000   2.4860000  -1.7270000
   7.9250000  -0.3770000  -1.8020000   8.4650000  -1.3220000  -1.9100000
   8.3220000   0.0990000  -0.9030000   6.4790000  -0.7290000  -1.5560000
   5.9140000   0.1640000  -1.2990000   5.8330000  -1.3950000  -2.7550000
   6.4520000  -2.2210000  -3.1090000   4.8470000  -1.7700000  -2.4820000
   5.7000000  -0.6830000  -3.5590000   6.4840000  -1.6600000  -0.4160000
   6.9330000  -1.1890000   0.4580000   5.4580000  -1.9270000  -0.1660000
   7.0290000  -2.5680000  -0.6670000   7.0170000   2.5050000  -3.6250000
   6.5940000   3.8780000  -3.4040000   7.4330000   4.5370000  -3.1750000
   5.5330000   3.9560000  -2.3590000   4.3560000   3.8370000  -2.6110000
   5.9490000   4.2640000  -4.7290000   5.2850000   5.1260000  -4.6380000
   6.7230000   4.4780000  -5.4690000   5.2150000   3.0520000  -5.1010000
   4.2940000   2.8170000  -4.5840000   4.9790000   3.0750000  -6.1650000
   6.3060000   1.9930000  -4.8320000   7.0000000   1.9400000  -5.6720000
   5.8410000   1.0280000  -4.6630000   5.9210000   4.4380000  -1.2190000
   6.8910000   4.6940000  -1.1180000   5.1390000   4.3700000  -0.0210000
   4.5300000   3.4660000  -0.0350000   4.1450000   5.4950000   0.2070000
   3.5410000   5.5240000   1.2800000   6.1380000   4.3250000   1.1180000
   6.6970000   5.2440000   1.1810000   5.5840000   4.2710000   2.0560000
   7.1290000   3.1390000   1.1020000   7.6420000   2.9680000   0.2300000
   8.1040000   3.1540000   2.2600000   7.5540000   3.1000000   3.1980000
   8.7660000   2.2900000   2.1910000   8.7110000   4.0540000   2.2530000
   6.3000000   1.9380000   1.1910000   5.7510000   1.7670000   0.2680000
   6.9410000   1.0630000   1.2960000   5.6200000   1.9900000   2.0410000
   4.0180000   6.4240000  -0.7220000   4.6070000   6.3360000  -1.5380000
   2.8520000   7.3650000  -0.7110000   2.4580000   7.4470000   0.3030000
   1.6640000   6.9250000  -1.5850000   0.6700000   7.6860000  -1.7940000
   3.2370000   8.7580000  -1.1950000   3.4960000   8.7010000  -2.2540000
   2.3880000   9.4350000  -1.0790000   4.3850000   9.3070000  -0.4290000
   5.2560000   8.6560000  -0.5040000   4.1030000   9.3810000   0.6220000
   4.7860000  10.7240000  -0.9330000   3.8940000  11.3540000  -0.9750000
   5.4930000  11.1560000  -0.2210000   5.4040000  10.6130000  -2.2330000
   5.5190000   9.6910000  -2.6220000   5.7370000  11.6490000  -2.9670000
   5.5720000  12.8520000  -2.4690000   5.8690000  13.7010000  -2.9730000
   5.1560000  12.9900000  -1.5690000   6.2800000  11.4530000  -4.1450000
   6.6080000  12.2740000  -4.6450000   6.2750000  10.5490000  -4.5790000
   1.7590000   5.7130000  -2.1270000   2.5960000   5.1570000  -1.9990000
   0.7200000   5.1450000  -2.9810000   0.0930000   4.4840000  -2.3880000
   0.0930000   5.9310000  -3.3990000   1.2130000   4.3240000  -4.1660000
   0.9450000   4.6760000  -5.3380000   1.8630000   3.2750000  -3.9520000
 -18.6857416  -7.8907416  -5.6192416 -18.7857416  -7.1417416  -5.0322416
 -18.1407416  -8.5077416  -5.1312416  -3.4047416  -4.5617416 -15.9182416
  -3.4997416  -5.4397416 -15.5482416  -4.1697416  -4.4567416 -16.4832416
  -1.5187416 -16.3027416  10.5507584  -2.2657416 -16.6117416  11.0637584
  -1.8867416 -15.6397416   9.9667584 -15.8427416   5.7082584 -15.2472416
 -16.5477416   5.1512584 -14.9172416 -15.8177416   6.4472584 -14.6392416
  -1.6817416 -20.4167416   2.3547584  -1.8417416 -21.2657416   1.9427584
  -1.1717416 -19.9277416   1.7087584 -16.0957416  -2.8557416   2.0897584
 -16.4227416  -2.2007416   2.7077584 -15.1537416  -2.6927416   2.0447584
 -10.9217416  -9.5977416  -7.2992416 -11.5167416 -10.3207416  -7.1002416
 -10.0497416  -9.9897416  -7.2712416 -16.9277416 -14.5967416 -10.6792416
 -17.3927416 -15.3937416 -10.9322416 -16.9037416 -14.0697416 -11.4782416
  -7.7017416  -3.7377416  -3.7752416  -8.5127416  -3.9197416  -4.2502416
  -7.0167416  -3.7937416  -4.4422416 -22.1707416  -7.4927416 -10.8442416
 -22.9937416  -7.1727416 -11.2162416 -21.8977416  -8.1937416 -11.4352416
  -3.9507416  -2.9527416 -10.0962416  -4.3377416  -3.3937416  -9.3392416
  -4.6577416  -2.4097416 -10.4442416 -13.7427416 -12.8837416  -1.5542416
 -14.3487416 -13.3167416  -0.9522416 -13.4127416 -13.5897416  -2.1102416
 -11.5807416 -10.2177416 -13.6762416 -12.1647416  -9.7677416 -13.0662416
 -11.1277416 -10.8687416 -13.1402416  -5.3397416  -6.3387416  -1.4722416
  -4.8587416  -6.4217416  -0.6482416  -4.6747416  -6.4577416  -2.1502416
  -0.7267416 -12.0617416 -13.0442416  -0.8157416 -11.8277416 -13.9682416
  -0.0677416 -11.4547416 -12.7062416 -17.1917416  -7.8797416 -10.4302416
 -17.0417416  -7.8487416  -9.4852416 -18.0527416  -7.4797416 -10.5502416
 -20.2737416 -14.4027416   9.4667584 -19.5327416 -13.9907416   9.9127584
 -19.9437416 -14.6057416   8.5917584  -9.8757416   3.9862584  -5.1822416
  -8.9427416   3.7942584  -5.2712416 -10.2827416   3.5552584  -5.9332416
   5.2302584 -16.0027416 -13.8312416   4.2902584 -15.8827416 -13.9672416
   5.4092584 -16.8867416 -14.1502416  -4.4437416  -0.2067416 -18.6992416
  -5.0977416   0.4832584 -18.8132416  -4.5277416  -0.7487416 -19.4832416
 -12.1217416  -5.5817416 -12.7152416 -11.6727416  -4.7407416 -12.6312416
 -12.9297416  -5.4727416 -12.2132416  -4.3747416 -16.7087416   5.6657584
  -4.6917416 -17.0517416   6.5007584  -4.4347416 -17.4497416   5.0627584
   5.9932584 -11.6267416  -3.6072416   5.0542584 -11.5657416  -3.7812416
   6.0502584 -11.9697416  -2.7152416 -20.4177416  -0.7957416 -15.5342416
 -19.6247416  -0.2597416 -15.5332416 -20.1337416  -1.6457416 -15.1982416
  -4.8287416  -7.1097416  -8.7152416  -5.5547416  -7.2017416  -9.3322416
  -5.1027416  -7.6097416  -7.9462416  -9.2767416  -6.8877416 -18.8452416
  -9.9057416  -7.5887416 -18.6742416  -9.7287416  -6.3027416 -19.4532416
  -5.8737416   0.4622584  -6.0132416  -5.5287416   1.3382584  -6.1822416
  -5.1437416  -0.1257416  -6.2072416 -18.3747416   7.2202584   6.8537584
 -17.9087416   6.5432584   6.3627584 -19.0227416   7.5612584   6.2367584
 -11.0467416   1.5522584 -10.8372416 -11.1167416   2.3162584 -11.4082416
 -10.7307416   0.8522584 -11.4092416  -8.2757416   4.4832584 -17.4892416
  -7.6517416   4.4772584 -18.2152416  -7.8347416   3.9982584 -16.7912416
 -21.2177416 -13.6977416 -14.2422416 -20.8937416 -14.4857416 -14.6772416
 -20.4317416 -13.2717416 -13.8992416 -18.4287416 -19.8707416  -2.7422416
 -19.3597416 -19.7337416  -2.9162416 -18.0387416 -19.9947416  -3.6072416
 -11.7877416 -19.3847416  -1.2342416 -12.0497416 -18.4637416  -1.2412416
 -11.1147416 -19.4377416  -0.5562416  -7.6517416 -20.8857416 -10.5082416
  -8.0417416 -20.1377416 -10.9602416  -7.7167416 -21.6057416 -11.1352416
  -7.3877416  -7.5307416  -6.2852416  -7.9967416  -7.5847416  -5.5482416
  -7.9387416  -7.3097416  -7.0362416 -15.9317416   5.3602584  -9.6222416
 -15.7147416   6.2432584  -9.3242416 -15.7897416   5.3842584 -10.5682416
 -10.5297416 -12.4897416   7.5797584 -10.9307416 -11.7387416   7.1437584
  -9.8207416 -12.1137416   8.1017584   5.7282584  -5.9947416 -11.7372416
   5.6422584  -5.4167416 -12.4952416   5.3812584  -5.4847416 -11.0052416
 -14.4527416 -15.1817416 -15.8782416 -13.7887416 -14.6597416 -16.3282416
 -14.8187416 -14.5887416 -15.2212416   1.5782584 -12.1547416  -2.0152416
   1.9142584 -13.0477416  -2.0852416   1.4842584 -12.0067416  -1.0742416
 -15.0127416  -7.7957416 -12.2882416 -15.6477416  -8.0567416 -11.6212416
 -14.4417416  -8.5577416 -12.3872416 -13.7207416 -18.7587416  -7.0792416
 -13.5407416 -18.3027416  -7.9012416 -13.0337416 -18.4597416  -6.4822416
  -6.9557416  -7.5727416 -10.3692416  -7.6417416  -6.9997416 -10.7112416
  -7.4047416  -8.3947416 -10.1722416 -15.1577416  -4.2647416  -6.8782416
 -15.6737416  -3.6717416  -6.3312416 -15.1927416  -5.1047416  -6.4202416
  -0.3517416 -17.9607416 -16.7162416  -1.1247416 -17.9907416 -17.2802416
  -0.0087416 -17.0737416 -16.8272416  -1.5777416  -1.0647416  -4.4332416
  -1.9307416  -0.5277416  -3.7232416  -0.8587416  -0.5447416  -4.7932416
 -15.5987416 -13.3627416  10.4717584 -15.4467416 -12.8237416  11.2477584
 -14.7417416 -13.4247416  10.0507584 -12.3967416   4.3182584   7.4147584
 -12.4047416   4.7172584   6.5447584 -13.1907416   4.6472584   7.8367584
 -11.6147416   4.7312584 -17.8222416 -11.5557416   5.6812584 -17.7202416
 -11.1677416   4.3792584 -17.0532416 -18.1197416 -17.9547416  -7.0332416
 -18.9727416 -17.6157416  -7.3072416 -17.5757416 -17.1747416  -6.9262416
  -9.6597416  -9.2467416   7.6777584  -9.2327416  -9.5187416   6.8647584
  -8.9447416  -9.1617416   8.3077584 -11.4407416  -0.7487416  -6.4002416
 -11.4617416   0.0202584  -6.9712416 -10.5197416  -1.0077416  -6.3812416
  -7.2357416 -17.0637416   3.8277584  -6.6837416 -16.4227416   3.3797584
  -7.5397416 -17.6467416   3.1327584  -8.2737416  -2.0397416 -11.5732416
  -8.7857416  -2.6047416 -10.9952416  -8.8997416  -1.3857416 -11.8852416
 -17.8897416  -7.4857416 -13.3262416 -17.5637416  -8.2847416 -12.9112416
 -18.4107416  -7.0577416 -12.6472416 -10.8647416 -16.6347416  -0.9492416
  -9.9957416 -16.2487416  -1.0562416 -11.0407416 -16.5737416  -0.0102416
 -19.8067416   2.1552584 -14.3872416 -20.2467416   1.5652584 -13.7752416
 -19.0157416   1.6842584 -14.6492416 -13.4157416 -15.5677416  -5.8202416
 -14.3387416 -15.7447416  -5.6392416 -13.2617416 -15.9557416  -6.6812416
 -16.3477416  -2.5187416  -5.1692416 -17.0097416  -2.6097416  -4.4842416
 -15.7167416  -1.8947416  -4.8112416 -10.0797416 -16.8237416  -6.3452416
  -9.2507416 -17.2897416  -6.4572416 -10.4367416 -17.1647416  -5.5242416
 -11.8877416  -6.0507416  -7.4792416 -12.7357416  -6.4577416  -7.6552416
 -12.0777416  -5.1137416  -7.4242416 -11.5287416 -12.9137416 -10.0302416
 -11.4657416 -13.6227416  -9.3892416 -12.1337416 -12.2867416  -9.6362416
 -15.4297416   7.2462584 -17.7002416 -16.1257416   6.7212584 -18.0952416
 -15.5197416   7.0942584 -16.7592416  -7.1167416  -2.9587416 -14.8312416
  -6.9397416  -2.9627416 -15.7712416  -6.5587416  -3.6527416 -14.4792416
 -16.7997416 -20.6857416 -14.9172416 -15.9507416 -21.0947416 -15.0862416
 -16.6457416 -19.7507416 -15.0492416 -13.3947416 -12.8447416 -12.8162416
 -12.9057416 -13.1107416 -12.0372416 -12.7877416 -12.2837416 -13.2992416
 -11.8387416  -3.1697416  -3.4142416 -11.2037416  -3.6827416  -3.9142416
 -12.6677416  -3.6327416  -3.5312416 -13.7337416 -11.4847416  -9.4012416
 -13.4977416 -11.2447416  -8.5052416 -14.6667416 -11.6957416  -9.3552416
 -14.1437416   1.5192584 -13.6532416 -13.6427416   1.1372584 -12.9322416
 -13.5017416   1.6442584 -14.3522416 -10.6157416 -18.5387416 -12.7312416
 -10.2237416 -18.0587416 -12.0012416  -9.9807416 -19.2257416 -12.9362416
 -20.0427416 -11.2447416  -3.4412416 -20.6087416 -10.7727416  -4.0522416
 -20.6487416 -11.6977416  -2.8542416 -19.0137416 -15.6367416  -0.8342416
 -18.2707416 -16.1717416  -1.1122416 -19.7647416 -16.0117416  -1.2952416
 -15.5417416 -16.0787416  -8.6102416 -16.1567416 -15.5007416  -9.0622416
 -15.1657416 -16.6197416  -9.3042416 -18.3167416 -17.2507416 -10.7692416
 -18.9877416 -17.8887416 -10.5292416 -18.0547416 -17.4987416 -11.6552416
  -4.6007416 -10.3687416  -8.2882416  -4.0167416 -10.4077416  -9.0452416
  -5.4777416 -10.4717416  -8.6552416 -10.1907416 -18.8237416 -16.7342416
 -10.5587416 -18.4537416 -17.5362416  -9.5317416 -18.1867416 -16.4562416
 -18.8107416 -11.5337416  -0.1442416 -18.1007416 -12.0767416  -0.4882416
 -18.6707416 -10.6747416  -0.5432416  -9.2017416 -11.8727416 -16.2122416
  -8.7247416 -12.6197416 -15.8522416  -8.5857416 -11.1417416 -16.1492416
 -12.1257416 -10.2807416 -18.9052416 -11.8437416  -9.6007416 -19.5172416
 -12.2127416  -9.8267416 -18.0662416 -16.6087416   7.2202584 -11.9882416
 -17.1837416   7.7562584 -11.4432416 -15.8677416   7.7912584 -12.1912416
  -7.1677416 -14.9537416 -10.3932416  -7.1867416 -14.9537416  -9.4362416
  -6.2657416 -14.7197416 -10.6142416  -6.6437416  -1.2377416  -9.5392416
  -6.9097416  -1.4617416 -10.4302416  -7.0117416  -1.9347416  -8.9962416
  -3.9697416  -1.8767416  -5.6912416  -3.1537416  -1.7577416  -5.2062416
  -3.7637416  -1.5947416  -6.5822416 -15.4497416  -6.6177416  -5.2742416
 -16.0657416  -6.9047416  -4.6002416 -15.0947416  -7.4307416  -5.6352416
  -0.6477416  -9.5847416 -10.6862416  -0.6037416  -8.6337416 -10.7782416
   0.0112584  -9.9167416 -11.2962416 -21.2307416 -19.7287416  -7.0012416
 -21.1367416 -20.1677416  -7.8462416 -21.0257416 -18.8117416  -7.1822416
 -13.0087416  -8.0027416   1.3217584 -12.8947416  -8.9527416   1.3097584
 -12.5817416  -7.6997416   0.5197584 -16.9287416 -10.4317416   8.9727584
 -16.1217416 -10.3567416   9.4807584 -17.6107416 -10.5897416   9.6257584
 -10.1757416  -8.4197416  -5.0462416 -10.5437416  -8.2277416  -5.9092416
  -9.8247416  -9.3067416  -5.1272416 -12.6637416 -13.0217416 -16.4342416
 -12.0067416 -12.9607416 -17.1272416 -12.2127416 -12.7127416 -15.6482416
 -18.0997416  -6.1457416   3.7477584 -18.2427416  -5.6657416   2.9317584
 -17.8357416  -5.4747416   4.3767584 -19.8917416  -5.1107416  -5.0172416
 -19.2787416  -4.4607416  -4.6752416 -20.5617416  -5.1907416  -4.3382416
 -12.8337416 -19.9447416 -10.2142416 -11.9207416 -19.7817416 -10.4512416
 -12.7907416 -20.3107416  -9.3312416 -10.2907416 -12.1737416 -12.3362416
  -9.8827416 -12.6097416 -13.0852416 -10.1887416 -12.7927416 -11.6132416
  -2.1247416  -7.0107416  -8.5222416  -2.3367416  -6.5937416  -7.6872416
  -2.9757416  -7.2097416  -8.9132416  -4.5557416 -10.7527416   8.2167584
  -4.8667416 -10.6927416   7.3137584  -3.6077416 -10.6387416   8.1527584
 -17.7407416  -9.3677416  -1.2352416 -16.9747416  -9.8497416  -1.5472416
 -18.1177416  -8.9797416  -2.0252416 -18.3367416 -14.5747416   1.7147584
 -18.4307416 -14.8487416   0.8017584 -18.3467416 -13.6187416   1.6807584
  -6.0077416 -12.7287416   2.5327584  -6.6807416 -13.3027416   2.1667584
  -5.4227416 -13.3177416   3.0087584  -5.4727416 -20.2507416  -2.0082416
  -5.6607416 -19.4007416  -1.6102416  -6.2147416 -20.8017416  -1.7602416
 -18.4497416   3.0832584  -6.2472416 -17.6247416   3.5152584  -6.4702416
 -18.9327416   3.7342584  -5.7392416 -16.7207416  -6.7077416  -7.9372416
 -17.3397416  -6.1887416  -8.4502416 -16.8107416  -6.3737416  -7.0442416
  -9.3657416  -5.3927416 -10.8762416  -9.4277416  -5.6247416 -11.8022416
 -10.0267416  -4.7117416 -10.7542416 -14.3047416 -17.4277416 -10.7682416
 -13.9437416 -17.1117416 -11.5962416 -13.8257416 -18.2377416 -10.5912416
 -13.5847416   8.3922584   0.1737584 -13.6857416   7.7532584  -0.5312416
 -13.0337416   9.0792584  -0.2022416 -16.9087416   4.6072584  -3.5962416
 -17.8297416   4.8352584  -3.7212416 -16.5507416   4.5612584  -4.4822416
 -18.6347416 -13.5257416 -12.8222416 -19.2067416 -13.2347416 -12.1122416
 -18.4837416 -12.7397416 -13.3472416  -1.8757416 -13.4437416  -1.5272416
  -2.3167416 -13.1257416  -0.7392416  -1.5107416 -12.6567416  -1.9322416
 -19.2597416   7.6292584  -4.9922416 -19.3537416   7.1652584  -5.8242416
 -18.7287416   8.3972584  -5.2042416 -15.1607416  -5.9767416 -18.8192416
 -14.6687416  -6.6597416 -18.3642416 -14.6567416  -5.1767416 -18.6692416
 -13.0347416 -18.6817416 -13.7392416 -12.1857416 -18.8307416 -13.3212416
 -13.0067416 -19.2107416 -14.5362416 -13.7807416  -5.1667416  -3.7702416
 -14.0777416  -5.5557416  -2.9482416 -14.4037416  -5.4847416  -4.4242416
  -9.8147416 -15.4867416   1.5247584  -9.5397416 -14.5727416   1.4537584
  -9.3517416 -15.8167416   2.2947584  -8.8147416 -11.5467416   9.7157584
  -8.0877416 -12.1067416   9.9877584  -8.4527416 -11.0117416   9.0087584
  -7.7997416 -14.4487416   8.6677584  -7.5747416 -14.5237416   9.5947584
  -8.6567416 -14.8687416   8.5937584  -3.0307416  -4.5447416 -12.5872416
  -3.1807416  -3.7697416 -13.1272416  -3.6767416  -4.4767416 -11.8842416
   2.1202584  -6.2457416  -9.7932416   2.5092584  -6.9787416  -9.3152416
   2.5212584  -6.2847416 -10.6612416 -17.0647416 -10.0157416  -7.0942416
 -17.2967416  -9.7967416  -6.1912416 -16.2217416  -9.5857416  -7.2352416
   6.2642584 -19.1977416  -5.8002416   6.3832584 -18.8427416  -4.9192416
   7.1532584 -19.3387416  -6.1252416  -7.4597416 -13.7037416  -5.8102416
  -7.3007416 -14.4237416  -6.4202416  -6.5867416 -13.4377416  -5.5212416
  -8.8647416   6.1812584  -8.1752416  -9.1947416   6.0712584  -7.2832416
  -9.5937416   6.5772584  -8.6532416 -21.6067416  -3.7537416  10.0687584
 -20.9017416  -3.4677416  10.6487584 -21.1597416  -4.1957416   9.3477584
 -20.3307416  -8.1327416  -7.8632416 -19.8397416  -8.2477416  -7.0492416
 -20.4137416  -7.1837416  -7.9602416 -18.7257416 -10.5937416  -9.1892416
 -19.4487416  -9.9827416  -9.0522416 -18.1197416 -10.4137416  -8.4692416
 -20.3367416 -19.2967416  -9.8942416 -20.8857416 -18.5587416 -10.1612416
 -20.9247416 -20.0517416  -9.9132416 -19.7867416  -5.4757416  -7.7842416
 -19.8317416  -5.4057416  -6.8302416 -19.6977416  -4.5717416  -8.0872416
 -10.2327416  -7.3747416  -2.6392416 -10.1187416  -7.8207416  -3.4792416
  -9.4137416  -6.8967416  -2.5082416  -7.0957416  -9.5027416   8.6447584
  -6.2587416  -9.9627416   8.7177584  -6.8937416  -8.5987416   8.8867584
 -13.3117416  -5.6347416 -15.5062416 -13.0407416  -5.7667416 -14.5972416
 -12.9007416  -4.8087416 -15.7612416 -14.7617416  -3.2817416  -2.1102416
 -14.9937416  -3.9887416  -1.5082416 -14.5647416  -3.7247416  -2.9352416
 -14.7867416 -20.5147416  -5.3172416 -14.6197416 -19.7617416  -5.8842416
 -14.2217416 -20.3717416  -4.5562416 -10.4767416   1.8732584 -15.3482416
 -11.2357416   1.3572584 -15.6192416  -9.7317416   1.4402584 -15.7642416
 -18.9507416   6.7012584 -13.2702416 -19.2737416   7.5562584 -13.5552416
 -18.0667416   6.8732584 -12.9482416 -20.6837416   0.5652584  -1.5202416
 -19.9647416   0.2432584  -2.0622416 -20.4997416   1.4972584  -1.4052416
  -3.8157416 -13.2187416 -13.4112416  -2.8977416 -13.1877416 -13.1402416
  -3.9617416 -14.1307416 -13.6602416 -17.0037416  -5.4877416 -15.0682416
 -16.2117416  -5.9237416 -15.3822416 -17.1887416  -5.9047416 -14.2262416
  -7.1717416  -9.9147416 -15.6572416  -6.3517416 -10.3917416 -15.5342416
  -7.3427416  -9.5067416 -14.8072416  -9.1857416  -6.5077416  -8.1242416
  -9.9707416  -6.1957416  -7.6742416  -9.3057416  -6.2347416  -9.0332416
 -16.0717416 -11.1567416  -2.4682416 -15.1357416 -11.3537416  -2.5062416
 -16.4757416 -11.9677416  -2.1592416 -13.7047416  -1.8357416   2.7197584
 -12.9397416  -2.1697416   2.2497584 -13.4597416  -0.9457416   2.9747584
 -13.9187416  -1.1497416 -17.7812416 -14.5237416  -1.7877416 -17.4032416
 -14.0347416  -0.3637416 -17.2472416  -9.3627416 -21.0017416 -14.2552416
  -8.5457416 -21.0227416 -13.7582416  -9.0887416 -21.0557416 -15.1712416
 -14.6757416  -4.2437416  -9.6962416 -14.6947416  -3.3257416  -9.9692416
 -14.8097416  -4.2147416  -8.7492416 -10.9457416 -12.6947416 -18.5622416
 -11.3337416 -11.8637416 -18.8342416 -10.0017416 -12.5397416 -18.5882416
  -8.7517416  -0.8597416   0.4847584  -9.6247416  -1.0457416   0.8287584
  -8.6927416  -1.3847416  -0.3142416 -14.0247416  -6.7387416  -8.8682416
 -14.9077416  -6.8937416  -8.5312416 -14.0767416  -5.8797416  -9.2882416
  -8.0747416 -16.5357416 -12.6442416  -7.5187416 -17.3117416 -12.7132416
  -7.5387416 -15.8967416 -12.1742416  -8.0047416  -6.0727416  -2.5192416
  -7.8937416  -5.2647416  -3.0202416  -7.1337416  -6.2597416  -2.1692416
 -15.0787416  -8.3137416   7.3877584 -15.3067416  -8.8307416   8.1607584
 -14.3807416  -7.7307416   7.6847584   4.6462584  -9.0847416  -6.7292416
   4.1612584  -9.9047416  -6.6422416   5.5092584  -9.3487416  -7.0482416
  -3.0027416 -10.6127416 -10.5612416  -2.0997416 -10.3037416 -10.6392416
  -3.5177416  -9.9767416 -11.0582416  -9.1307416  -9.5257416 -11.0692416
  -9.8487416  -9.1187416 -10.5832416  -9.4157416 -10.4287416 -11.2062416
 -18.3747416 -21.5957416 -10.2282416 -17.8527416 -21.2367416  -9.5112416
 -19.0987416 -20.9777416 -10.3312416 -19.6087416  -6.2787416 -11.3852416
 -20.2067416  -6.1517416 -12.1212416 -20.0807416  -6.8587416 -10.7892416
  -9.3147416 -11.3177416  -3.9592416  -8.6887416 -10.6037416  -3.8392416
  -8.7957416 -12.0307416  -4.3342416   5.9952584 -14.8137416  -4.2632416
   5.7882584 -15.2257416  -5.1012416   5.1712584 -14.4147416  -3.9822416
 -16.4557416  -9.0357416   1.4217584 -17.0427416  -8.9297416   0.6727584
 -15.9987416  -8.1977416   1.4887584 -20.6127416 -19.1327416  -4.3602416
 -20.8207416 -19.5507416  -5.1962416 -20.0477416 -18.3957416  -4.5952416
  -2.4527416 -20.3737416  -4.9862416  -1.5617416 -20.5007416  -5.3122416
  -2.4787416 -19.4567416  -4.7112416  -9.8537416  -3.3747416 -14.6692416
  -9.9807416  -3.0877416 -13.7652416  -8.9207416  -3.2387416 -14.8352416
 -11.5987416  -8.3347416  -9.7492416 -11.3137416  -8.3797416  -8.8372416
 -12.3377416  -7.7267416  -9.7402416 -17.5177416  -4.9687416 -18.1362416
 -16.6087416  -5.1647416 -17.9072416 -17.7117416  -5.5547416 -18.8672416
 -16.8457416 -20.2697416  -8.5412416 -16.0977416 -19.6747416  -8.4972416
 -17.6047416 -19.7157416  -8.3572416  -8.7697416 -12.2637416  -9.3482416
  -9.7207416 -12.3377416  -9.4302416  -8.4297416 -13.0467416  -9.7822416
  -8.9657416  -5.5727416   0.5347584  -9.4237416  -5.9597416  -0.2112416
  -8.6537416  -4.7267416   0.2107584  -4.8807416  -7.6707416  -5.2402416
  -5.8337416  -7.6507416  -5.1602416  -4.5617416  -7.4217416  -4.3722416
  -4.8427416 -16.7877416 -19.0462416  -5.7547416 -16.5197416 -18.9302416
  -4.6087416 -17.2067416 -18.2172416 -16.7247416  -9.8097416 -16.2542416
 -17.5447416  -9.3167416 -16.2912416 -16.0867416  -9.1877416 -15.9052416
  -2.0217416  -9.6057416  -1.7792416  -1.4757416 -10.3187416  -2.1102416
  -1.8957416  -8.8947416  -2.4082416  -6.7107416 -10.8187416  -9.7982416
  -7.4997416 -11.2077416  -9.4212416  -6.4737416 -11.4037416 -10.5172416
 -10.9267416  -9.6247416 -16.2402416 -11.2107416  -9.6027416 -15.3272416
 -10.5227416 -10.4857416 -16.3462416 -12.2037416  -3.3887416  -7.0622416
 -13.1357416  -3.5517416  -6.9192416 -12.1227416  -2.4347416  -7.0572416
  -6.0047416  -0.9987416  -3.4112416  -5.2657416  -1.5927416  -3.5422416
  -6.0867416  -0.5297416  -4.2422416 -16.4247416 -17.6877416 -13.1022416
 -15.9827416 -17.4047416 -12.3022416 -16.0297416 -17.1577416 -13.7952416
  -4.9847416 -10.8947416   5.3337584  -5.7557416 -11.3577416   5.0057584
  -4.2477416 -11.3107416   4.8877584  -1.8137416  -4.7487416 -17.8942416
  -1.4567416  -3.8747416 -18.0532416  -2.4017416  -4.6357416 -17.1482416
   5.6752584 -10.6307416  -9.7392416   6.0892584 -10.3907416  -8.9102416
   6.0952584 -10.0677416 -10.3892416  -7.9077416   5.0032584 -10.5132416
  -7.9707416   5.2592584  -9.5922416  -7.9597416   4.0472584 -10.5002416
 -16.3747416 -12.3247416  -9.7122416 -17.1527416 -11.7697416  -9.7692416
 -16.6137416 -13.1227416 -10.1842416  -4.8327416 -11.3697416 -15.0402416
  -4.2427416 -10.6257416 -14.9152416  -4.5807416 -11.9927416 -14.3592416
  -8.2427416 -10.2337416  -6.8752416  -7.4937416  -9.6437416  -6.9642416
  -7.9647416 -11.0407416  -7.3092416 -16.9117416  -2.2167416  -8.8832416
 -17.5747416  -1.9717416  -8.2382416 -17.3837416  -2.7527416  -9.5202416
 -12.2737416 -16.7287416  -8.2952416 -12.3597416 -16.0577416  -8.9732416
 -11.4267416 -16.5507416  -7.8872416 -14.4337416   1.8982584  -6.1942416
 -13.6427416   2.3682584  -6.4582416 -15.1527416   2.4322584  -6.5312416
 -14.8047416  -7.7647416 -15.0932416 -14.1227416  -7.1507416 -15.3642416
 -14.8807416  -7.6377416 -14.1472416 -14.2147416  -1.5577416  -7.7232416
 -15.1147416  -1.8827416  -7.7582416 -14.3057416  -0.6107416  -7.6152416
 -14.3007416   7.9842584 -14.6602416 -13.5467416   8.2502584 -15.1872416
 -14.1447416   8.3802584 -13.8032416 -18.7687416   5.6902584  -9.4272416
 -17.8337416   5.4822584  -9.4252416 -18.8067416   6.6212584  -9.6452416
  -4.9497416 -15.7687416 -13.0602416  -4.0327416 -15.9537416 -13.2622416
  -5.4387416 -16.1587416 -13.7842416 -13.1567416  -9.7237416 -11.5042416
 -12.4027416  -9.2877416 -11.1072416 -13.5287416 -10.2517416 -10.7982416
  -4.9657416 -10.2327416   1.6927584  -5.2287416 -11.0687416   2.0767584
  -5.7827416  -9.7427416   1.5997584  -6.3997416 -17.9367416  -0.3322416
  -5.6967416 -17.2867416  -0.3352416  -6.6097416 -18.0587416   0.5937584
 -11.1617416 -13.4387416   4.2267584 -10.8867416 -14.0717416   4.8907584
 -10.8757416 -12.5927416   4.5707584  -4.4677416 -12.9297416  -2.3642416
  -4.6117416 -12.1147416  -1.8832416  -3.5517416 -13.1497416  -2.1952416
 -14.9827416 -11.8607416 -17.4782416 -14.1077416 -12.1707416 -17.2462416
 -15.4367416 -11.7717416 -16.6402416 -15.3397416 -12.0117416   7.1087584
 -15.7277416 -11.4147416   7.7487584 -14.9377416 -11.4377416   6.4577584
  -9.3187416 -13.2057416  -1.5982416 -10.2347416 -13.0927416  -1.3422416
  -9.0887416 -12.3857416  -2.0352416   4.3262584  -8.0757416 -12.8042416
   3.4062584  -7.8417416 -12.9262416   4.7242584  -7.2917416 -12.4262416
 -17.4147416 -11.7287416   2.1637584 -18.3187416 -11.4817416   2.3577584
 -16.9247416 -10.9087416   2.2187584  -7.1077416  -7.9197416   2.1287584
  -7.8777416  -7.3537416   2.0727584  -7.0617416  -8.1717416   3.0507584
 -17.4307416 -15.7147416 -14.8402416 -16.8687416 -14.9727416 -15.0632416
 -17.6797416 -15.5617416 -13.9282416  -6.6077416  -8.7817416   4.9467584
  -5.8547416  -9.1847416   5.3787584  -7.2987416  -9.4427416   5.0027584
   0.7802584 -10.2897416 -16.0392416  -0.1117416  -9.9437416 -16.0572416
   1.3052584  -9.6217416 -16.4802416 -14.9267416   4.4622584   4.3307584
 -14.2777416   4.6642584   3.6567584 -15.7337416   4.2952584   3.8437584
  -7.8307416  -6.4007416   4.5747584  -7.1757416  -5.8467416   4.1497584
  -7.3197416  -7.0677416   5.0327584  -2.6797416  -4.1517416  -2.1232416
  -1.9497416  -3.5487416  -2.2622416  -2.5417416  -4.4967416  -1.2412416
  -5.0837416 -12.5507416  -4.8492416  -4.5987416 -11.7257416  -4.8472416
  -5.0437416 -12.8547416  -3.9422416  -5.7477416 -17.2747416 -15.6862416
  -5.4837416 -18.1377416 -15.3672416  -6.4737416 -17.4527416 -16.2852416
 -10.6637416  -8.5157416   4.1007584 -10.0107416  -8.4087416   3.4087584
 -10.9787416  -7.6287416   4.2727584 -13.5067416 -16.8167416  -2.7012416
 -14.3287416 -16.7997416  -3.1912416 -13.7757416 -16.8557416  -1.7832416
 -12.5217416 -11.6787416  -6.7822416 -11.9657416 -12.4507416  -6.8902416
 -12.6237416 -11.5877416  -5.8342416 -11.2867416 -10.9107416   5.2527584
 -11.0317416 -10.0777416   4.8547584 -12.0527416 -11.1907416   4.7517584
   6.0242584 -14.2937416 -17.0922416   6.0632584 -14.5877416 -16.1822416
   6.7332584 -14.7687416 -17.5272416  -9.9747416 -15.4697416   6.4757584
 -10.5847416 -14.7657416   6.6937584 -10.5167416 -16.1337416   6.0497584
  -0.7327416 -12.1787416  10.1037584   0.1532584 -12.5387416  10.0507584
  -1.3067416 -12.9337416   9.9787584  -4.9697416 -15.7647416  -1.0282416
  -4.0667416 -15.9457416  -1.2912416  -5.0207416 -14.8097416  -0.9852416
  -6.9107416  -2.1587416   5.4857584  -7.2187416  -2.7277416   6.1907584
  -5.9567416  -2.1757416   5.5627584 -10.4967416  -3.7277416  -0.9052416
 -11.2067416  -3.7787416  -1.5452416  -9.8467416  -3.1557416  -1.3132416
  -1.2297416 -11.4727416  -5.8222416  -2.0047416 -11.0507416  -5.4512416
  -1.1067416 -11.0467416  -6.6702416 -19.7637416  -8.6927416   6.2287584
 -19.2717416  -8.8407416   5.4217584 -20.0747416  -9.5617416   6.4837584
  -8.1267416   7.6732584   7.3207584  -7.4337416   8.2062584   6.9297584
  -8.4687416   8.2112584   8.0347584 -17.1327416   2.0542584 -19.2982416
 -16.7117416   2.3032584 -18.4752416 -16.4227416   1.6992584 -19.8322416
 -19.7787416  -3.2977416 -17.9472416 -19.6497416  -2.3497416 -17.9182416
 -18.9337416  -3.6467416 -18.2282416 -17.1427416 -13.3907416  -1.1282416
 -16.5437416 -13.6867416  -0.4422416 -17.6177416 -14.1797416  -1.3882416
 -16.8957416 -15.3017416   3.7957584 -16.9427416 -16.2577416   3.7807584
 -17.5487416 -15.0187416   3.1567584 -19.2517416  -8.7837416 -16.1052416
 -20.0847416  -9.1517416 -15.8082416 -19.3447416  -7.8407416 -15.9692416
 -10.7267416 -19.2777416   6.2747584 -10.9117416 -19.2237416   7.2117584
 -11.1317416 -18.4937416   5.9037584 -19.3337416 -11.9627416   7.7667584
 -19.0977416 -12.8487416   7.4927584 -18.7087416 -11.7507416   8.4597584
  -2.6907416 -17.7287416  -4.3532416  -2.1987416 -17.0647416  -4.8362416
  -3.5427416 -17.7597416  -4.7882416 -13.6567416   8.1232584   3.1237584
 -12.8717416   8.6682584   3.1737584 -13.6387416   7.7562584   2.2397584
 -12.5167416  -4.6437416   6.8557584 -12.1937416  -5.1817416   6.1317584
 -12.2717416  -3.7497416   6.6177584 -17.1107416 -15.0047416   8.5847584
 -16.5337416 -14.7817416   7.8547584 -16.5767416 -14.8587416   9.3657584
 -13.7837416 -11.4657416   4.0227584 -14.4417416 -10.8727416   4.3857584
 -14.2697416 -12.2617416   3.8067584 -20.1707416 -12.3777416  -6.7252416
 -20.6817416 -11.7567416  -6.2072416 -20.8227416 -12.9587416  -7.1152416
 -12.6867416 -19.8027416 -15.9682416 -13.2367416 -19.7317416 -16.7492416
 -11.8327416 -19.4717416 -16.2462416  -7.2497416   3.9842584   6.9057584
  -7.9847416   3.4312584   6.6417584  -6.7167416   4.0682584   6.1147584
 -15.6517416 -14.4257416   6.1607584 -16.1327416 -14.5397416   5.3417584
 -15.5327416 -13.4797416   6.2397584  -8.4957416 -10.7457416   5.6197584
  -9.3337416 -10.8797416   5.1777584  -8.1967416 -11.6277416   5.8397584
   1.9612584 -15.4957416  -2.2342416   1.0222584 -15.5357416  -2.4162416
   2.3752584 -15.8247416  -3.0322416 -17.6497416 -10.0967416  -4.2622416
 -18.4137416 -10.5167416  -3.8682416 -16.8997416 -10.5427416  -3.8672416
  -6.5017416  -3.7197416  -0.7302416  -6.3367416  -3.0317416  -1.3762416
  -6.1397416  -4.5117416  -1.1262416 -11.3837416 -20.1517416   2.9837584
 -11.0087416 -20.2707416   3.8567584 -10.6337416 -19.9457416   2.4257584
 -18.4327416 -19.5307416   3.2117584 -17.7617416 -18.9787416   3.6147584
 -19.0527416 -18.9117416   2.8277584 -15.0047416  -5.0217416 -12.3162416
 -15.1917416  -5.9517416 -12.1912416 -14.9737416  -4.6607416 -11.4302416
 -13.2607416  -6.7207416   8.6107584 -12.8377416  -5.9557416   8.2197584
 -13.7467416  -6.3707416   9.3577584 -21.0317416 -20.9397416   9.5557584
 -20.2317416 -20.4937416   9.8337584 -21.6987416 -20.2527416   9.5477584
 -10.0757416  -9.3517416  -0.4222416 -10.5777416 -10.1417416  -0.6192416
 -10.1547416  -8.8147416  -1.2112416 -19.7677416   6.3902584   9.1897584
 -19.5407416   6.1962584   8.2797584 -19.9017416   7.3372584   9.2067584
 -13.9837416  -2.2867416   9.4927584 -13.7467416  -2.8007416  10.2647584
 -14.5787416  -1.6147416   9.8247584 -11.9947416 -17.0557416   5.3257584
 -12.8937416 -16.9927416   5.6487584 -12.0847416 -17.1017416   4.3737584
 -14.6477416 -10.1577416  10.1367584 -13.6997416 -10.0277416  10.1447584
 -14.8167416 -10.7437416  10.8747584 -15.3957416 -13.3187416   3.1587584
 -15.8027416 -14.1767416   3.2767584 -15.9087416 -12.9027416   2.4657584
 -16.8477416 -19.0797416  10.2717584 -17.4037416 -19.1517416  11.0467584
 -17.3317416 -19.5377416   9.5847584   6.1272584 -21.6607416   7.9877584
   6.4972584 -20.9167416   8.4627584   6.6522584 -21.7217416   7.1897584
  -3.9797416 -18.0347416   2.9697584  -3.9477416 -18.9487416   3.2537584
  -3.4697416 -18.0177416   2.1597584  -9.7727416  -7.1637416 -16.1392416
  -9.3767416  -6.8887416 -16.9652416 -10.2047416  -7.9927416 -16.3442416
  -8.1487416 -19.9217416   4.9477584  -7.5077416 -20.0147416   5.6527584
  -8.9157416 -19.5357416   5.3707584 -13.5867416 -10.7337416   1.4207584
 -14.5107416 -10.5767416   1.2267584 -13.5787416 -11.0217416   2.3337584
 -14.6177416  -4.4127416   4.2097584 -13.7377416  -4.4977416   4.5757584
 -14.8317416  -3.4847416   4.3107584 -15.5957416 -13.5597416 -13.9942416
 -16.1647416 -12.8077416 -13.8292416 -14.8377416 -13.4167416 -13.4282416
   7.3092584 -13.4007416  -7.9582416   7.3862584 -14.3147416  -8.2332416
   6.4872584 -13.1017416  -8.3462416  -1.7417416 -11.9257416 -17.3662416
  -1.2737416 -12.5487416 -16.8112416  -1.2617416 -11.9347416 -18.1952416
 -17.9117416  -2.7127416 -12.8892416 -17.5147416  -1.8677416 -12.6762416
 -17.3977416  -3.0397416 -13.6272416 -21.9287416   7.5672584 -18.1632416
 -21.6287416   8.0792584 -18.9142416 -21.7687416   6.6572584 -18.4132416
 -15.8977416 -16.9957416  -3.9092416 -16.3797416 -16.4437416  -4.5242416
 -16.5247416 -17.1807416  -3.2102416  -7.5557416 -13.2867416   5.9527584
  -8.2697416 -13.9197416   6.0237584  -7.0847416 -13.3617416   6.7827584
  -6.6547416  -4.7307416 -12.4672416  -7.3597416  -5.0247416 -13.0452416
  -7.0967416  -4.4887416 -11.6532416 -21.1897416 -11.9047416   5.8257584
 -20.4807416 -12.0287416   6.4567584 -20.7537416 -11.5977416   5.0317584
  -7.3637416 -21.4047416  -6.1512416  -6.6987416 -22.0547416  -5.9222416
  -7.2187416 -20.6857416  -5.5372416  -8.4107416  -3.3707416  -8.6402416
  -8.4357416  -3.4227416  -7.6852416  -8.5197416  -4.2767416  -8.9322416
 -17.6917416 -17.5597416   7.4927584 -18.6197416 -17.4247416   7.3017584
 -17.4577416 -16.8357416   8.0727584 -18.2387416  -8.8047416   3.9647584
 -18.2797416  -7.8587416   4.1067584 -17.9227416  -8.8977416   3.0657584
  -1.2647416 -19.2867416   4.9257584  -1.6117416 -19.4497416   4.0487584
  -1.3637416 -20.1217416   5.3827584  -8.1737416   1.5772584  -9.2142416
  -7.9857416   2.0422584 -10.0302416  -8.0507416   0.6532584  -9.4312416
  -7.4907416  -9.5107416  -3.0462416  -7.8717416  -8.7527416  -2.6022416
  -6.6337416  -9.6237416  -2.6352416 -13.0907416  -4.3017416 -18.7362416
 -12.3257416  -4.6767416 -19.1722416 -12.7287416  -3.8047416 -18.0022416
 -13.1637416   6.2612584   5.5917584 -13.3497416   6.0112584   4.6867584
 -12.4167416   6.8562584   5.5277584 -15.5957416  -9.7507416   5.0137584
 -16.4367416  -9.4297416   4.6857584 -15.2467416  -9.0247416   5.5297584
 -22.6397416 -12.7577416   0.9907584 -22.9237416 -13.5607416   1.4267584
 -22.8257416 -12.0627416   1.6217584 -11.4417416 -11.6357416  -0.6252416
 -12.0557416 -12.2937416  -0.9502416 -11.5937416 -11.6107416   0.3197584
  -8.4197416  -0.6307416 -18.3292416  -9.2897416  -0.3457416 -18.6082416
  -7.9577416  -0.8247416 -19.1442416 -12.0297416 -11.5987416  -4.0252416
 -11.0967416 -11.4057416  -4.1192416 -12.0597416 -12.3767416  -3.4692416
 -19.2497416 -14.3747416   6.6637584 -18.4497416 -14.8937416   6.7477584
 -19.3957416 -14.3107416   5.7197584  -2.9787416  -5.8167416  -6.2932416
  -2.2197416  -5.8647416  -5.7122416  -3.5127416  -6.5747416  -6.0542416
 -21.8157416  -7.3857416  10.2587584 -21.2677416  -6.6217416  10.0767584
 -21.8577416  -7.4287416  11.2137584 -11.4607416  -8.3717416   9.5037584
 -12.1007416  -7.8247416   9.0487584 -10.9027416  -8.7187416   8.8077584
   5.6262584 -20.2487416  -1.6082416   5.5692584 -21.1727416  -1.3642416
   5.5722584 -19.7777416  -0.7762416  -5.8437416  -4.9517416   3.2497584
  -5.9997416  -4.0287416   3.4507584  -4.9437416  -4.9777416   2.9257584
   4.1232584  -9.6577416 -17.5192416   4.1142584  -9.0827416 -16.7532416
   4.8272584 -10.2817416 -17.3442416  -6.9727416 -18.2547416 -17.8872416
  -6.4137416 -19.0307416 -17.9252416  -7.3177416 -18.1637416 -18.7752416
 -21.9317416 -18.1477416   4.5797584 -22.2507416 -19.0247416   4.3687584
 -21.1687416 -18.0267416   4.0137584  -8.9137416  -1.8457416  -2.1302416
  -8.9867416  -1.0407416  -2.6432416  -8.1017416  -2.2517416  -2.4352416
 -12.2877416 -14.3877416  -3.4532416 -12.2627416 -15.2417416  -3.0212416
 -12.6657416 -14.5657416  -4.3142416  -6.8957416   6.0792584   1.5497584
  -7.3457416   5.3812584   1.0737584  -7.5087416   6.3332584   2.2387584
  -7.2487416 -17.3767416   6.7347584  -7.9437416 -16.7187416   6.7457584
  -7.0157416 -17.4647416   5.8107584  -5.1697416   8.5082584   3.2707584
  -5.3787416   7.8082584   2.6527584  -5.4987416   8.1912584   4.1117584
 -13.4287416 -13.4817416   8.8767584 -14.0047416 -13.3887416   8.1177584
 -12.6197416 -13.0397416   8.6197584 -14.8597416 -14.4687416   0.3557584
 -14.8827416 -15.4247416   0.3287584 -14.0197416 -14.2597416   0.7657584
  -5.9077416   8.3782584 -13.7022416  -6.0567416   7.6432584 -13.1062416
  -6.1907416   8.0542584 -14.5572416 -12.9767416   5.6632584 -13.9792416
 -13.8737416   5.8812584 -14.2332416 -12.4387416   5.9772584 -14.7062416
 -21.6847416 -15.5117416  -9.7392416 -22.1577416 -15.2447416 -10.5272416
 -20.8857416 -14.9847416  -9.7482416 -11.6547416   1.3412584   1.4027584
 -11.6217416   0.3932584   1.5257584 -12.2857416   1.4692584   0.6937584
 -11.7197416   4.1412584 -12.0552416 -11.9127416   4.6232584 -11.2522416
 -12.0467416   4.7042584 -12.7572416 -20.1317416  -2.7827416  -8.4042416
 -19.6227416  -2.2357416  -7.8062416 -19.7517416  -2.6127416  -9.2662416
  -8.8397416  -6.0337416 -13.5892416  -8.6887416  -6.9717416 -13.7032416
  -9.4237416  -5.7957416 -14.3092416 -20.6387416 -16.8887416  -7.2902416
 -21.1147416 -16.5477416  -8.0472416 -20.9627416 -16.3747416  -6.5512416
 -13.0847416   6.5042584 -10.7642416 -13.3847416   6.4962584 -11.6722416
 -13.6597416   7.1322584 -10.3272416 -11.0787416  -1.1777416   1.8907584
 -11.1857416  -2.0507416   1.5137584 -10.4647416  -1.3027416   2.6157584
  -8.9467416 -14.8267416 -16.9102416  -9.7387416 -14.3637416 -17.1862416
  -9.2557416 -15.4717416 -16.2742416 -17.8067416   7.9542584  -1.1362416
 -17.6727416   8.1032584  -0.2002416 -18.1917416   8.7702584  -1.4562416
 -12.3007416  -1.6987416 -13.2702416 -12.9507416  -2.0517416 -13.8772416
 -12.8117416  -1.1877416 -12.6422416  -9.7157416 -16.4397416 -14.7162416
  -9.1237416 -16.4487416 -13.9642416 -10.4087416 -17.0577416 -14.4832416
 -19.4797416   3.0392584  -0.0122416 -18.6007416   2.6632584  -0.0572416
 -19.3897416   3.9072584  -0.4052416 -22.7687416  -0.0877416 -14.6812416
 -21.8757416  -0.4107416 -14.7972416 -23.3167416  -0.7287416 -15.1352416
  -7.0457416   4.3162584 -14.6342416  -7.1657416   3.5342584 -15.1742416
  -7.8867416   4.4332584 -14.1912416  -8.5887416  -1.2367416  -6.1892416
  -8.3457416  -0.3497416  -6.4552416  -7.7617416  -1.6467416  -5.9352416
  -5.1987416  -0.0937416   2.0697584  -5.6937416   0.6332584   2.4477584
  -5.6017416  -0.8777416   2.4427584  -9.9637416   3.4072584   2.5227584
 -10.3187416   2.6882584   1.9997584  -9.4797416   3.9432584   1.8947584
 -18.1287416   0.9242584  -2.7952416 -17.5297416   1.6702584  -2.7642416
 -17.5957416   0.1782584  -2.5192416 -17.0087416  -0.1687416 -12.6152416
 -16.3527416   0.2142584 -12.0332416 -17.8247416  -0.1307416 -12.1162416
  -5.3217416   6.1062584 -11.6402416  -6.1677416   5.7232584 -11.4102416
  -4.9347416   5.4832584 -12.2552416 -20.4967416  -2.7787416 -13.8562416
 -21.1437416  -2.9397416 -13.1682416 -19.6517416  -2.9137416 -13.4272416
  -8.5007416   7.2162584 -12.0082416  -8.0507416   6.5812584 -11.4522416
  -8.8397416   6.6982584 -12.7382416 -16.3107416  -2.6617416 -17.0002416
 -16.9027416  -2.0467416 -17.4332416 -16.8097416  -3.4767416 -16.9452416
 -16.9547416   5.8222584  10.5587584 -17.5507416   5.9852584   9.8267584
 -17.4447416   5.2432584  11.1427584  -6.3697416  -2.4987416   1.8627584
  -6.3027416  -3.2097416   1.2257584  -7.1127416  -1.9757416   1.5617584
 -15.5417416   1.5232584 -15.9882416 -15.2337416   2.2862584 -16.4762416
 -15.1607416   1.6262584 -15.1162416 -12.4307416   1.9122584  -2.2622416
 -13.1787416   1.6412584  -1.7302416 -12.2927416   1.1852584  -2.8702416
  -7.3617416   3.5352584  -5.3662416  -6.5607416   3.6452584  -5.8782416
  -7.7257416   2.7022584  -5.6662416 -13.6397416 -16.1277416 -13.6322416
 -13.9557416 -15.8947416 -14.5052416 -13.3877416 -17.0477416 -13.7052416
 -18.5337416  -1.4187416  -6.8112416 -18.9627416  -0.6097416  -6.5342416
 -17.7727416  -1.4957416  -6.2352416 -19.5597416  -6.0817416 -16.1702416
 -19.1707416  -5.4237416 -16.7462416 -19.0067416  -6.0737416 -15.3892416
 -18.6277416  -3.7847416 -10.4512416 -18.5757416  -3.4037416 -11.3272416
 -19.2147416  -4.5337416 -10.5492416 -11.6427416   7.7972584  -5.2812416
 -10.8467416   7.4562584  -4.8732416 -11.9777416   8.4402584  -4.6552416
 -11.5357416   7.8582584 -18.6262416 -11.6627416   7.5352584 -19.5182416
 -12.0807416   8.6442584 -18.5762416 -12.6427416  -7.2297416  -1.4472416
 -13.1007416  -8.0667416  -1.5272416 -11.8697416  -7.3247416  -2.0032416
 -16.1017416   3.3012584 -12.3562416 -15.4927416   2.8182584 -12.9142416
 -16.7547416   3.6532584 -12.9612416 -22.0257416  -3.7877416 -16.3102416
 -21.4317416  -3.7327416 -15.5612416 -21.5007416  -3.4967416 -17.0552416
 -15.8937416   4.4902584  -6.3632416 -16.0457416   5.4262584  -6.2352416
 -14.9457416   4.3882584  -6.2792416 -12.8377416   3.9392584  -7.8652416
 -12.7457416   4.6382584  -7.2172416 -13.2757416   4.3572584  -8.6072416
  -9.9507416 -19.5137416  -9.7722416  -9.1727416 -20.0097416  -9.5162416
 -10.1677416 -18.9917416  -9.0002416 -11.9007416   0.7062584 -17.4352416
 -11.9357416  -0.1777416 -17.8012416 -12.3727416   1.2472584 -18.0682416
 -22.1917416  -6.8227416 -16.9472416 -22.8207416  -6.1117416 -16.8282416
 -21.3407416  -6.4227416 -16.7702416  -6.9537416   2.3172584 -11.4412416
  -6.8927416   2.2072584 -12.3902416  -6.0497416   2.4442584 -11.1552416
 -15.1287416  -5.9287416  -1.1532416 -15.4257416  -5.9597416  -0.2442416
 -14.3517416  -6.4877416  -1.1722416 -18.4417416   0.9962584  -8.4752416
 -18.9807416   1.4462584  -7.8242416 -17.7507416   1.6232584  -8.6892416
 -11.1767416   1.6932584  -8.1552416 -10.8927416   1.6872584  -9.0692416
 -11.8567416   2.3662584  -8.1192416 -19.4987416   0.7832584  -5.2062416
 -19.1617416   1.5392584  -5.6872416 -18.9887416   0.7662584  -4.3962416
  -2.7207416 -18.5337416 -17.9622416  -2.3737416 -19.2177416 -18.5352416
  -3.5817416 -18.8577416 -17.6972416   5.3702584 -19.1437416   0.7707584
   4.5682584 -19.3567416   1.2487584   5.6222584 -18.2797416   1.0957584
  -3.5857416   7.3362584 -10.0732416  -4.1247416   7.7242584  -9.3842416
  -4.2087416   7.0962584 -10.7592416 -21.8147416 -21.5707416   6.3567584
 -21.0297416 -21.4997416   5.8137584 -21.5647416 -21.1767416   7.1927584
 -22.0247416  -4.8787416  -3.4632416 -22.6287416  -5.3127416  -2.8602416
 -22.4997416  -4.1037416  -3.7622416 -16.0677416   2.6122584  -9.3952416
 -15.9677416   3.5202584  -9.1102416 -15.9377416   2.6422584 -10.3432416
 -12.3737416 -20.1217416  -3.6582416 -12.2077416 -20.0937416  -2.7152416
 -12.0987416 -19.2617416  -3.9752416 -11.4977416  -2.3457416   5.9597584
 -10.7667416  -2.2347416   5.3517584 -11.3267416  -1.7137416   6.6577584
 -19.4757416  -2.1927416  -1.1792416 -20.3647416  -1.9997416  -0.8802416
 -18.9117416  -1.8887416  -0.4692416   3.5312584 -13.0447416  -4.6732416
   3.1252584 -12.1777416  -4.6532416   2.7932584 -13.6547416  -4.6802416
 -19.7007416   0.3802584 -11.2002416 -19.3877416   1.1372584 -10.7042416
 -20.6547416   0.4572584 -11.1792416  -7.3697416   1.6882584   0.6287584
  -6.8007416   1.5462584  -0.1272416  -7.8057416   0.8472584   0.7627584
 -15.7447416  -0.1157416 -10.1032416 -15.5437416   0.6462584  -9.5592416
 -16.2577416  -0.6887416  -9.5332416 -10.7407416   7.3212584  -9.6762416
 -11.5787416   6.9732584  -9.9822416 -10.2857416   7.5872584 -10.4752416
 -11.5367416   4.5292584  -2.8542416 -10.9127416   4.4592584  -3.5762416
 -11.5367416   3.6602584  -2.4512416 -11.9407416  -3.0937416 -16.6162416
 -12.1347416  -2.1617416 -16.5112416 -11.2447416  -3.2667416 -15.9812416
  -9.1627416 -21.1227416 -17.5332416  -9.9437416 -21.3457416 -18.0392416
  -9.1577416 -20.1657416 -17.5072416 -19.6327416 -20.9827416 -14.8062416
 -18.6777416 -20.9157416 -14.8122416 -19.9287416 -20.1577416 -14.4222416
 -13.3857416  -0.1107416 -11.4062416 -13.9897416  -0.0837416 -10.6642416
 -12.5957416   0.3272584 -11.0882416 -13.0007416  -5.6897416   2.4137584
 -13.9107416  -5.4147416   2.5217584 -13.0577416  -6.5987416   2.1197584
 -14.8127416  -0.2437416  -4.7202416 -13.9147416  -0.2337416  -4.3892416
 -14.8287416   0.4362584  -5.3932416   2.6572584   3.6052584 -10.7972416
   1.7702584   3.8532584 -11.0562416   3.0942584   3.3842584 -11.6202416
 -14.5657416  -1.8407416   5.8827584 -14.7587416  -2.3807416   6.6497584
 -13.6107416  -1.8417416   5.8227584  -9.8557416 -20.2607416  -6.8452416
  -9.2327416 -20.9607416  -6.6482416 -10.6997416 -20.6017416  -6.5502416
   7.0362584   5.3302584 -10.4312416   6.4302584   4.6322584 -10.6842416
   7.6252584   4.9182584  -9.7992416  -9.5327416   4.4552584 -13.8162416
  -9.7287416   4.2892584 -12.8942416 -10.2937416   4.1182584 -14.2882416
  -8.8387416   1.6302584  -6.6292416  -9.7457416   1.5522584  -6.9272416
  -8.3317416   1.7462584  -7.4322416 -14.8407416   1.6352584   5.2197584
 -14.1757416   1.1352584   4.7467584 -14.8517416   2.4892584   4.7857584
 -15.6067416 -19.3807416   0.4167584 -15.0547416 -20.1467416   0.2597584
 -16.3577416 -19.7217416   0.9037584  -6.1407416  -9.2827416 -18.1832416
  -6.6627416  -8.5277416 -18.4562416  -6.5747416  -9.6007416 -17.3912416
 -11.3627416  -5.7017416   4.5637584 -10.7187416  -5.1767416   4.0877584
 -12.0207416  -5.9277416   3.9067584  -8.3057416  -8.7137416 -13.5082416
  -8.4337416  -8.8917416 -12.5762416  -9.1887416  -8.7247416 -13.8782416
 -11.9107416  -1.8157416  -9.4432416 -12.7027416  -1.7587416  -8.9092416
 -11.1967416  -1.6327416  -8.8322416  -3.7807416  -6.8677416 -13.7742416
  -3.6277416  -6.0247416 -13.3482416  -3.9847416  -7.4657416 -13.0552416
 -16.0377416   6.9072584  -5.1472416 -15.4467416   7.6402584  -4.9732416
 -16.8427416   7.1322584  -4.6812416   4.5462584 -21.2557416  -6.5472416
   4.7032584 -21.8927416  -5.8502416   5.1302584 -20.5257416  -6.3412416
 -10.6937416  -3.2167416 -11.6432416 -11.0617416  -2.9887416 -10.7892416
 -11.2417416  -2.7477416 -12.2732416   1.8562584  -1.9907416  -6.8952416
   2.0982584  -2.6997416  -6.3002416   1.3842584  -2.4247416  -7.6062416
 -21.3527416   8.1452584  -3.4872416 -21.3737416   9.0962584  -3.3762416
 -20.5217416   7.9742584  -3.9302416 -15.9737416  -1.0237416  -1.4902416
 -15.3557416  -1.7207416  -1.7092416 -16.5317416  -1.4017416  -0.8102416
   2.4132584  -6.6997416 -18.0272416   2.5112584  -7.4797416 -18.5742416
   1.6302584  -6.2647416 -18.3682416  -3.9387416   6.0442584 -16.0312416
  -3.0797416   5.7622584 -15.7182416  -4.5537416   5.7112584 -15.3782416
 -14.4487416 -17.3877416 -17.5202416 -14.3577416 -16.7447416 -16.8172416
 -15.2697416 -17.8417416 -17.3262416 -11.6047416   7.1972584 -15.9112416
 -11.5947416   8.0282584 -15.4352416 -11.2017416   7.4002584 -16.7562416
 -16.6737416   1.9402584   0.7197584 -16.4797416   1.7232584  -0.1922416
 -15.8467416   2.2762584   1.0677584 -12.5957416   6.8682584  -7.4182416
 -11.7987416   6.7302584  -7.9302416 -12.2837416   7.0382584  -6.5292416
 -21.1257416   6.8842584 -11.7982416 -20.4567416   6.3752584 -12.2542416
 -21.9107416   6.3382584 -11.8362416  -3.4967416   5.1112584  -5.3482416
  -3.1957416   5.3092584  -4.4612416  -3.4447416   4.1572584  -5.4122416
 -19.4527416   3.1432584 -10.3142416 -19.0507416   3.9792584 -10.0792416
 -20.2887416   3.3832584 -10.7152416 -21.3937416   5.1892584 -18.9842416
 -20.6177416   5.5022584 -19.4492416 -21.5717416   4.3302584 -19.3662416
  -0.4407416  -6.9357416 -10.6922416  -1.0667416  -6.8997416  -9.9692416
   0.3312584  -6.4737416 -10.3642416 -21.2947416  -2.5057416  -5.7742416
 -21.9847416  -2.1207416  -6.3142416 -20.8017416  -3.0627416  -6.3772416
 -18.8617416   5.3012584  -1.2342416 -19.0437416   5.2542584  -2.1722416
 -18.3537416   6.1062584  -1.1292416  -9.5267416   0.4862584  -3.7682416
 -10.4787416   0.3932584  -3.7432416  -9.2867416   0.2602584  -4.6662416
  -9.8507416  -0.1997416 -13.0162416  -9.3207416   0.2402584 -13.6812416
 -10.4037416  -0.8047416 -13.5112416 -19.3657416 -15.3847416 -17.4752416
 -18.8037416 -14.7177416 -17.8702416 -18.8307416 -15.7667416 -16.7792416
  -5.7947416   2.0322584 -19.2812416  -5.3397416   2.8022584 -18.9402416
  -6.6657416   2.3522584 -19.5172416 -15.6117416   0.9092584   8.7327584
 -16.1987416   0.7992584   7.9847584 -14.7327416   0.8342584   8.3597584
  -4.5477416  -8.9677416 -11.9442416  -5.0997416  -9.5957416 -12.4102416
  -5.1477416  -8.5157416 -11.3512416 -22.6697416 -18.0067416 -13.5432416
 -22.8147416 -18.9207416 -13.7852416 -22.7337416 -17.9987416 -12.5882416
  -2.9027416 -21.2747416   6.9347584  -3.4997416 -21.5127416   7.6437584
  -2.5107416 -20.4487416   7.2177584 -14.1107416 -16.6297416   6.8387584
 -14.2407416 -16.7307416   7.7817584 -14.8397416 -16.0787416   6.5527584
 -17.7517416 -20.5657416   8.2367584 -17.5697416 -19.7567416   7.7597584
 -17.8827416 -21.2227416   7.5527584 -10.1907416   0.4832584   5.1467584
 -10.0937416   0.2042584   6.0577584  -9.6667416  -0.1427416   4.6467584
 -18.0587416   4.8642584 -17.2992416 -17.9757416   4.1432584 -16.6752416
 -18.8787416   5.2952584 -17.0612416 -13.5307416   4.8972584  -4.6772416
 -13.0757416   4.6912584  -3.8612416 -13.6977416   5.8392584  -4.6282416
  -6.5507416   1.8832584   3.0777584  -6.9017416   1.9872584   2.1937584
  -7.3107416   1.9902584   3.6517584 -15.8117416  -5.5707416   1.3537584
 -16.3857416  -5.8287416   2.0757584 -15.8127416  -4.6137416   1.3777584
  -6.3957416   6.3652584  -3.3402416  -6.0137416   6.8872584  -2.6362416
  -5.8247416   6.5222584  -4.0932416  -8.6647416   2.5932584   4.7037584
  -9.1757416   1.8122584   4.9137584  -9.2247416   3.0942584   4.1107584
  -9.2687416  -4.5687416   2.9657584  -8.7057416  -5.1787416   3.4427584
  -9.3777416  -4.9677416   2.1027584  -9.3237416  -2.0857416   4.1437584
  -9.2047416  -2.8947416   3.6457584  -8.6107416  -2.0887416   4.7817584
 -17.2887416  -0.7017416 -18.7462416 -18.1937416  -0.6627416 -19.0562416
 -16.9377416   0.1712584 -18.9202416 -18.8867416   2.1672584   8.5237584
 -19.0317416   1.2312584   8.3837584 -18.1997416   2.2072584   9.1887584
  -8.1087416   4.2182584   0.2627584  -7.9787416   4.2282584  -0.6862416
  -8.1697416   3.2902584   0.4867584 -11.1487416   7.9222584   5.7427584
 -11.2867416   8.7102584   6.2687584 -10.2127416   7.7392584   5.8257584
 -17.1797416   3.9662584   2.6867584 -16.6717416   4.3612584   1.9777584
 -17.5397416   3.1652584   2.3067584 -14.3467416 -19.0117416   5.5487584
 -14.7147416 -19.7537416   6.0277584 -14.3377416 -18.2967416   6.1847584
 -19.2367416  -0.5927416   8.5507584 -20.1107416  -0.7057416   8.1777584
 -18.6427416  -0.9047416   7.8697584 -12.1697416  -0.4907416  -3.6322416
 -11.7557416  -1.2397416  -3.2042416 -11.9177416  -0.5697416  -4.5522416
 -15.0057416  -3.9587416   7.5857584 -14.8557416  -3.4727416   8.3967584
 -14.1357416  -4.2527416   7.3167584  -8.2047416   7.2382584   4.1297584
  -7.6577416   6.7972584   4.7807584  -8.1577416   8.1642584   4.3647584
 -14.7947416   4.0472584   9.7287584 -15.4597416   4.4322584  10.2997584
 -15.2377416   3.9302584   8.8887584  -5.5707416   4.2742584   4.8497584
  -4.8147416   4.1912584   4.2687584  -6.1627416   3.5742584   4.5747584
  -6.4237416   3.4622584  -2.8572416  -6.8257416   3.4132584  -3.7242416
  -6.1127416   4.3642584  -2.7872416 -22.9087416   4.1262584   3.5747584
 -23.0217416   3.3302584   4.0937584 -21.9687416   4.1662584   3.3977584
 -14.0737416   3.7202584 -16.5962416 -13.3537416   3.7902584 -17.2222416
 -14.5137416   4.5692584 -16.6412416   3.9642584 -17.9007416   3.3467584
   3.9662584 -18.7287416   3.8267584   4.5482584 -17.3317416   3.8467584
 -17.3207416  -4.5377416   6.0787584 -17.4297416  -5.4447416   6.3667584
 -16.4627416  -4.2807416   6.4167584 -12.8877416 -18.0117416   2.4437584
 -13.6917416 -18.1047416   2.9547584 -12.2977416 -18.6757416   2.7997584
 -11.4687416   7.3862584   8.5177584 -12.4187416   7.3802584   8.3997584
 -11.1157416   7.2312584   7.6417584 -14.3227416  -8.9087416  -6.6052416
 -14.0487416  -8.3547416  -7.3352416 -13.5577416  -9.4527416  -6.4162416
 -17.9377416   0.4402584 -14.8872416 -17.3227416   0.7712584 -15.5422416
 -17.4187416   0.3692584 -14.0852416 -21.6227416   2.3022584 -17.0982416
 -21.1027416   1.8062584 -17.7302416 -21.1847416   2.1562584 -16.2602416
 -21.5307416  -0.6447416   2.9457584 -21.2807416  -1.3127416   2.3077584
 -20.8447416   0.0192584   2.8797584 -15.3937416   4.6362584   0.6767584
 -15.3817416   5.0832584  -0.1692416 -14.5647416   4.8812584   1.0887584
 -11.9617416 -19.3747416   8.7487584 -12.8417416 -19.5737416   8.4287584
 -12.0857416 -19.1557416   9.6717584 -20.8967416   4.4772584   7.0577584
 -21.7767416   4.8152584   6.8957584 -20.9967416   3.9012584   7.8157584
   3.6942584   1.8442584 -15.4902416   4.4612584   1.7302584 -16.0512416
   3.3462584   2.7022584 -15.7312416 -10.6997416   6.7712584   2.7717584
  -9.9437416   6.7822584   3.3587584 -10.8927416   7.6952584   2.6117584
 -15.9017416   8.0932584   5.0217584 -15.4017416   7.5592584   5.6387584
 -15.2697416   8.3342584   4.3447584  -6.9277416 -19.4617416   2.3187584
  -7.2917416 -19.6097416   3.1917584  -6.0237416 -19.7697416   2.3807584
 -13.9117416   0.1052584   0.4767584 -14.5757416   0.0252584  -0.2082416
 -13.8207416  -0.7807416   0.8277584  -3.4657416  -2.1667416   0.9567584
  -3.7777416  -2.4537416   0.0987584  -4.2627416  -1.9777416   1.4517584
  -8.2717416 -18.2087416   9.3567584  -8.6347416 -19.0777416   9.1807584
  -7.7527416 -18.0047416   8.5787584  -9.7417416 -20.0117416   0.6197584
  -8.8417416 -19.9617416   0.9427584  -9.8667416 -20.9347416   0.3997584
 -14.5537416 -20.2987416   8.7627584 -15.2107416 -20.1577416   9.4447584
 -14.6177416 -21.2327416   8.5587584 -12.6707416   0.4482584   3.7857584
 -12.5107416   0.9332584   2.9757584 -11.8107416   0.3832584   4.2007584
  -4.3197416 -13.5377416 -17.7732416  -3.6067416 -13.1837416 -17.2422416
  -4.7557416 -12.7657416 -18.1352416 -15.5277416   4.8452584   6.9147584
 -16.4527416   4.7192584   6.7017584 -15.0867416   4.8602584   6.0657584
  -8.3537416  -0.6557416 -15.6022416  -8.4387416  -0.7987416 -16.5452416
  -7.7837416  -1.3637416 -15.3032416 -15.6667416   5.9812584  -1.6962416
 -15.9777416   5.7102584  -2.5602416 -16.2657416   6.6802584  -1.4342416
   2.2872584 -18.5527416   6.0237584   1.9532584 -18.8717416   5.1857584
   2.8302584 -19.2687416   6.3537584  -7.0087416   7.1572584 -16.1272416
  -7.1447416   6.2312584 -16.3272416  -7.6767416   7.6142584 -16.6382416
 -13.7207416 -20.3897416 -18.2052416 -14.4047416 -21.0597416 -18.2292416
 -14.1337416 -19.6117416 -18.5782416 -14.7737416   7.6022584  -8.8432416
 -14.1947416   7.2802584  -8.1532416 -15.2957416   8.2832584  -8.4192416
  -9.9737416  -4.7047416  -5.5152416 -10.3417416  -5.5847416  -5.4432416
 -10.6127416  -4.2197416  -6.0382416 -14.3837416   7.0212584   8.4167584
 -14.7097416   6.4372584   7.7317584 -14.7857416   6.6942584   9.2217584
  -9.6847416  -6.3307416   6.9787584  -9.8067416  -7.2797416   6.9557584
  -9.6037416  -6.0777416   6.0587584 -17.3047416 -21.3897416   1.5167584
 -17.6547416 -20.7627416   2.1497584 -17.4427416 -22.2447416   1.9257584
  -8.1357416 -13.7697416 -14.0252416  -7.4437416 -13.8907416 -14.6752416
  -8.4067416 -14.6587416 -13.7962416 -10.5637416 -15.2197416 -11.5032416
  -9.7427416 -15.6467416 -11.7462416 -11.2297416 -15.6637416 -12.0282416
 -12.0327416 -15.3547416  10.5857584 -11.6857416 -14.6767416  11.1647584
 -12.6527416 -14.8937416  10.0197584   2.1542584  -6.4487416 -12.9652416
   1.2652584  -6.2217416 -13.2392416   2.6852584  -5.6957416 -13.2232416
  -3.4297416 -14.0197416  -6.5882416  -3.2427416 -13.5867416  -7.4212416
  -3.8267416 -13.3377416  -6.0462416   0.6302584 -13.4657416  -4.7802416
   0.2562584 -13.0977416  -5.5812416   0.2642584 -14.3487416  -4.7282416
   4.6722584 -17.5717416  -8.7272416   4.5302584 -17.2717416  -9.6242416
   4.9072584 -18.4957416  -8.8162416   1.0352584 -13.6547416  -8.2472416
   0.4582584 -13.0807416  -8.7502416   1.6962584 -13.9417416  -8.8772416
   1.3332584 -20.2157416  -8.4382416   0.4172584 -20.0967416  -8.1882416
   1.3032584 -20.8237416  -9.1762416 -22.7457416 -14.8377416  -1.7972416
 -22.0277416 -14.2337416  -1.6082416 -23.0887416 -14.5447416  -2.6412416
  -3.4187416  -9.5417416 -17.6722416  -4.3617416  -9.4467416 -17.8072416
  -3.2457416 -10.4687416 -17.8392416  -4.1837416 -16.6757416  -6.8722416
  -3.6137416 -17.0827416  -7.5252416  -3.8097416 -15.8047416  -6.7362416
   4.9542584 -18.7807416 -15.4312416   5.4092584 -19.5477416 -15.7792416
   4.2342584 -18.6307416 -16.0432416  -6.9367416 -14.5487416 -18.7202416
  -7.6037416 -14.7137416 -18.0532416  -6.3497416 -13.9087416 -18.3192416
   3.1332584 -16.1297416  -4.6122416   3.3522584 -15.7267416  -5.4522416
   2.9562584 -17.0457416  -4.8242416   2.6442584 -14.5957416 -13.8812416
   2.0792584 -15.3587416 -14.0022416   2.9572584 -14.3867416 -14.7622416
 -22.3437416   1.3252584  -6.1222416 -22.5937416   0.4172584  -6.2922416
 -21.4467416   1.2702584  -5.7932416  -8.0087416 -10.3067416   1.1147584
  -8.6857416  -9.8337416   0.6307584  -7.4287416  -9.6207416   1.4477584
  -4.3407416   2.2382584 -10.1922416  -3.9687416   3.0502584 -10.5342416
  -3.8917416   1.5452584 -10.6762416  -6.0987416 -14.5597416 -15.4942416
  -5.6097416 -14.0507416 -16.1412416  -6.0217416 -15.4657416 -15.7942416
 -17.1907416 -17.6497416  -1.4182416 -16.6767416 -18.1507416  -0.7862416
 -17.6967416 -18.3097416  -1.8932416   2.4902584 -15.9487416   0.3587584
   3.3652584 -16.2837416   0.1627584   2.1152584 -15.7417416  -0.4972416
 -12.2987416 -14.4307416   1.5337584 -11.4587416 -14.7727416   1.2257584
 -12.1777416 -14.3107416   2.4757584 -17.3757416 -12.6407416  -6.0342416
 -18.2617416 -12.7217416  -5.6822416 -17.3997416 -11.8427416  -6.5632416
   6.7262584 -20.8657416 -16.0042416   7.3892584 -20.8027416 -16.6912416
   6.3362584 -21.7317416 -16.1262416  -3.6857416 -10.2447416  -5.5442416
  -4.0757416 -10.1667416  -6.4152416  -4.0437416  -9.5057416  -5.0532416
 -21.5637416   3.8162584  -8.2912416 -20.9227416   3.2332584  -8.6982416
 -22.3657416   3.2962584  -8.2432416 -22.2477416 -18.1287416 -17.2742416
 -21.9027416 -17.6237416 -18.0102416 -23.1867416 -18.1957416 -17.4482416
   2.6462584   1.4352584 -13.0332416   3.3572584   1.0262584 -12.5392416
   3.0192584   1.5992584 -13.8992416  -2.9777416  -9.4037416 -14.5402416
  -2.5187416  -9.2437416 -13.7162416  -3.2517416  -8.5357416 -14.8352416
  -4.7897416 -14.5587416   7.8387584  -5.4807416 -15.0047416   8.3277584
  -4.7067416 -15.0607416   7.0277584   2.7542584 -10.4337416  -3.9052416
   2.3122584 -10.9687416  -3.2462416   2.0522584  -9.9237416  -4.3102416
 -21.1107416  -7.0027416 -13.7262416 -21.7327416  -7.0527416 -14.4532416
 -21.0447416  -7.9017416 -13.4052416   3.9362584 -17.9517416  -1.5182416
   3.6592584 -17.4827416  -2.3052416   3.2402584 -18.5887416  -1.3602416
  -1.1807416  -2.0787416 -18.1772416  -0.4027416  -2.4827416 -17.7942416
  -1.4207416  -1.3867416 -17.5612416  -2.9107416 -13.7827416   9.8537584
  -3.3507416 -14.0477416   9.0457584  -3.5327416 -13.9967416  10.5477584
   6.4112584   2.2002584 -13.5422416   6.5592584   2.7532584 -14.3092416
   6.6242584   1.3152584 -13.8392416  -1.5397416 -20.8097416 -10.7972416
  -1.4067416 -20.4657416  -9.9142416  -2.2147416 -21.4807416 -10.6932416
   1.3772584 -17.1357416   9.8947584   1.1132584 -16.5437416   9.1907584
   0.6282584 -17.1477416  10.4917584   4.2142584 -20.9507416   3.9757584
   3.3052584 -21.1927416   3.7967584   4.6522584 -21.7817416   4.1597584
   0.5562584 -16.5207416  -7.5652416   0.9582584 -15.6847416  -7.8032416
   1.2972584 -17.1007416  -7.3872416   2.1692584 -20.5367416   0.7327584
   1.8662584 -20.1687416  -0.0972416   1.6692584 -20.0677416   1.4007584
   3.5152584 -14.0727416   4.5617584   3.4952584 -14.8127416   5.1677584
   4.2982584 -13.5807416   4.8097584 -22.6327416  -9.7327416  -7.7742416
 -22.3657416  -9.9607416  -6.8842416 -21.9067416  -9.2127416  -8.1172416
   2.9302584  -2.4197416 -11.2002416   2.0432584  -2.4377416 -10.8412416
   3.3802584  -3.1417416 -10.7632416  -6.1527416 -11.9967416 -12.2802416
  -6.5207416 -12.4637416 -13.0312416  -5.2487416 -12.3047416 -12.2252416
  -4.4637416   4.1812584 -13.3372416  -3.9407416   3.4342584 -13.6292416
  -5.2097416   4.2002584 -13.9362416 -18.0137416   4.2472584 -14.1322416
 -18.4537416   5.0712584 -13.9202416 -18.7267416   3.6292584 -14.2922416
   0.4352584   1.6002584  -8.8882416   0.1642584   2.1592584  -9.6172416
  -0.2557416   0.9412584  -8.8232416 -22.7757416 -15.2307416 -12.0912416
 -23.3537416 -15.6717416 -12.7152416 -22.0977416 -14.8287416 -12.6352416
 -17.3957416 -19.9267416  -5.2792416 -16.4537416 -20.0197416  -5.4262416
 -17.6867416 -19.3207416  -5.9602416  -1.8277416 -10.2147416   8.7237584
  -1.3217416 -10.8267416   9.2577584  -1.3347416 -10.1457416   7.9057584
 -10.7657416 -17.7767416 -19.0712416 -11.3577416 -17.0537416 -19.2782416
 -10.0907416 -17.7357416 -19.7492416   1.6532584 -19.4787416  -1.8142416
   1.8912584 -19.3817416  -2.7362416   1.1132584 -20.2687416  -1.7872416
 -14.2567416 -17.1667416   0.0477584 -13.6497416 -17.4697416   0.7237584
 -14.9917416 -17.7787416   0.0947584   4.8672584 -14.3357416   9.1127584
   5.3862584 -13.5617416   8.8927584   4.7072584 -14.7657416   8.2727584
  -1.5727416 -19.8357416  -8.3302416  -1.7497416 -19.8177416  -7.3902416
  -1.7087416 -18.9327416  -8.6172416  -0.6897416 -15.3417416  -2.9192416
  -1.2307416 -14.7477416  -2.3992416  -1.1257416 -15.3817416  -3.7702416
  -5.7607416 -11.7887416  10.7147584  -5.8737416 -10.8517416  10.8697584
  -5.4467416 -11.8467416   9.8117584   5.1882584 -20.0217416 -10.0842416
   4.8622584 -20.7917416  -9.6192416   4.7792584 -20.0717416 -10.9482416
 -18.6217416  -2.3047416  -3.8182416 -19.5317416  -2.1067416  -4.0392416
 -18.5697416  -2.1727416  -2.8722416   1.7822584  -8.7617416  -1.3212416
   2.5242584  -9.2737416  -1.6442416   2.1822584  -8.0467416  -0.8252416
 -20.1107416 -17.4757416   2.4907584 -20.5007416 -17.9787416   1.7757584
 -19.8067416 -16.6677416   2.0757584   0.1652584   8.2052584 -12.7002416
  -0.4887416   8.5422584 -12.0882416   0.8372584   7.8132584 -12.1412416
   7.2252584 -12.2097416 -12.0332416   6.2892584 -12.3117416 -11.8612416
   7.3652584 -12.6547416 -12.8682416 -10.6667416 -14.1097416  -7.1582416
  -9.7267416 -14.1347416  -7.3372416 -10.8397416 -14.9157416  -6.6722416
  -0.5497416  -9.2037416  -7.8972416  -1.0547416  -8.4117416  -8.0812416
  -0.5987416  -9.7127416  -8.7062416   5.1872584 -12.6307416  -0.6672416
   6.0782584 -12.7787416  -0.3482416   4.6352584 -13.1577416  -0.0892416
 -20.1697416 -12.6387416 -10.7462416 -19.7467416 -12.4367416  -9.9112416
 -21.0357416 -12.2377416 -10.6792416 -20.8397416 -13.3137416  -0.9532416
 -19.9887416 -12.9097416  -0.7852416 -21.3977416 -13.0037416  -0.2402416
   4.6972584 -15.6077416  -6.7042416   4.8282584 -16.4327416  -7.1722416
   4.6262584 -14.9487416  -7.3952416 -16.7407416 -18.0607416 -16.0452416
 -17.0937416 -17.1967416 -15.8312416 -17.4307416 -18.4797416 -16.5602416
  -2.6437416 -18.3167416 -12.2062416  -2.0177416 -18.8827416 -11.7532416
  -3.3777416 -18.2357416 -11.5982416  -5.9587416   8.0962584  -8.7602416
  -6.4857416   7.5102584  -8.2172416  -6.5277416   8.3192584  -9.4962416
 -16.9197416 -11.2847416 -14.0162416 -17.1707416 -10.7287416 -13.2782416
 -16.9337416 -10.6997416 -14.7732416  -0.7557416   6.2822584   1.9977584
  -0.5147416   5.7472584   1.2417584  -0.3987416   7.1492584   1.8017584
  -6.8547416  -5.6207416 -18.7052416  -7.7367416  -5.9587416 -18.5522416
  -6.4157416  -6.3127416 -19.2002416  -0.6417416 -13.7977416 -10.7452416
   0.2722584 -14.0817416 -10.7772416  -0.6787416 -13.0417416 -11.3312416
   1.5802584 -10.6677416 -12.1422416   1.8882584 -10.2207416 -11.3542416
   2.2922584 -10.5597416 -12.7732416  -5.6267416   2.9202584  -7.7862416
  -5.6727416   2.5262584  -8.6572416  -4.9297416   3.5732584  -7.8542416
   4.3042584 -13.6427416  -8.6212416   3.8632584 -12.9057416  -8.1982416
   4.4792584 -13.3377416  -9.5122416   1.6242584 -13.3327416 -19.2142416
   2.1932584 -12.7327416 -19.6962416   2.1432584 -13.5967416 -18.4542416
  -2.3607416 -15.8407416 -13.4292416  -2.1167416 -16.6267416 -12.9412416
  -1.5257416 -15.4657416 -13.7122416 -18.7077416  -4.3317416   1.5237584
 -19.2487416  -3.9357416   0.8407584 -18.0217416  -3.6847416   1.6917584
   0.2342584   4.1332584 -11.6322416  -0.5897416   4.5492584 -11.8852416
   0.2522584   3.3142584 -12.1272416  -7.7357416 -18.4557416  -7.4072416
  -6.8757416 -18.8637416  -7.5102416  -8.2297416 -19.0697416  -6.8632416
 -21.5517416 -14.7547416  -5.2172416 -22.4397416 -14.8277416  -4.8702416
 -21.2587416 -13.8847416  -4.9472416 -21.6027416  -3.2337416 -11.2212416
 -21.0197416  -3.1057416 -10.4722416 -22.3927416  -3.6237416 -10.8472416
 -11.9557416  -3.5227416   1.1837584 -11.2897416  -3.6887416   0.5167584
 -12.1137416  -4.3777416   1.5837584   2.5222584  -8.0627416  -7.7992416
   2.2262584  -7.3347416  -7.2532416   3.3122584  -8.3827416  -7.3632416
   1.9812584 -19.4507416 -13.4812416   1.3772584 -20.1937416 -13.4682416
   2.8512584 -19.8497416 -13.4762416  -3.3887416  -6.3977416  -3.2872416
  -2.5737416  -6.8927416  -3.3742416  -3.1067416  -5.5117416  -3.0592416
   4.9592584  -7.9667416 -15.5332416   4.9322584  -7.7237416 -14.6082416
   5.0942584  -7.1387416 -15.9952416 -17.6377416  -7.0467416  -3.0022416
 -16.9657416  -7.1287416  -2.3262416 -18.3867416  -6.6577416  -2.5512416
   1.6982584 -17.7797416 -11.0432416   1.8592584 -18.4397416 -11.7172416
   2.5622584 -17.6027416 -10.6692416   5.0852584  -5.6057416 -17.5662416
   4.2562584  -6.0707416 -17.6852416   5.4632584  -5.5617416 -18.4442416
  -1.3857416 -15.6067416  -5.6542416  -2.0617416 -15.1117416  -6.1172416
  -0.7677416 -15.8657416  -6.3382416 -18.4007416 -10.6957416 -18.3322416
 -19.1067416 -10.1227416 -18.0332416 -17.6827416 -10.5317416 -17.7202416
  -4.8577416  -4.3907416  -8.0842416  -4.9007416  -5.3267416  -8.2812416
  -3.9887416  -4.2677416  -7.7002416   2.6742584  -9.6017416  -9.9742416
   2.3132584  -9.0537416  -9.2772416   3.4732584  -9.9717416  -9.5992416
   4.4312584 -16.5957416 -11.3192416   4.5842584 -15.6747416 -11.1062416
   4.7542584 -16.6907416 -12.2152416   1.3322584 -12.5947416   4.9957584
   0.6562584 -13.1357416   4.5887584   2.1142584 -13.1467416   4.9957584
  -6.0207416  -3.1447416 -17.6992416  -6.0847416  -4.0357416 -18.0432416
  -5.3937416  -2.7097416 -18.2762416   0.4522584 -21.0967416  -5.1552416
   0.8972584 -21.8037416  -5.6222416   1.1422584 -20.4607416  -4.9682416
 -14.2927416  -2.6407416 -14.6862416 -14.3617416  -3.5707416 -14.4702416
 -14.9327416  -2.5087416 -15.3852416 -21.8917416  -9.3677416 -15.8672416
 -22.0397416  -8.7057416 -16.5422416 -22.5617416 -10.0317416 -16.0312416
  -6.5447416 -15.9027416  -7.5752416  -5.6507416 -16.2127416  -7.4352416
  -7.0797416 -16.6957416  -7.5542416   2.4542584 -19.0437416  -4.2302416
   3.3532584 -19.3677416  -4.1662416   2.3062584 -18.9307416  -5.1692416
   3.2302584 -11.7957416  -6.9592416   3.5462584 -12.4637416  -6.3502416
   2.2932584 -11.7277416  -6.7752416   0.2142584 -13.1317416 -15.8752416
   0.4082584 -12.1957416 -15.9302416   0.6312584 -13.4157416 -15.0612416
  -4.4097416 -19.7987416 -14.8732416  -4.6347416 -20.5337416 -14.3032416
  -3.4537416 -19.7587416 -14.8462416   5.1822584 -12.3527416   6.0387584
   5.7732584 -12.3017416   6.7897584   4.6692584 -11.5457416   6.0817584
   6.6012584  -1.1007416  -6.8972416   5.7092584  -1.0927416  -6.5502416
   6.4892584  -1.1147416  -7.8472416  -2.8967416 -13.1987416  -9.3142416
  -2.8967416 -12.3147416  -9.6812416  -2.1927416 -13.6507416  -9.7772416
  -0.1147416 -10.1957416   6.7717584  -0.0427416 -11.0097416   6.2727584
   0.7772584 -10.0177416   7.0707584  -0.4637416  -3.7427416  -5.6522416
  -0.3277416  -3.0087416  -5.0542416  -1.3107416  -3.5657416  -6.0622416
 -21.8277416  -9.7817416 -12.9142416 -22.0007416  -9.9967416 -13.8312416
 -21.9687416 -10.6037416 -12.4442416  -4.2617416 -15.3307416 -10.4342416
  -4.1197416 -15.2607416 -11.3782416  -3.9477416 -14.4987416 -10.0812416
  -5.2237416 -19.4487416  -7.6812416  -5.2707416 -19.6407416  -6.7442416
  -5.3647416 -20.2937416  -8.1062416   0.2812584 -15.5207416 -17.0942416
   0.3112584 -14.6027416 -16.8252416  -0.2297416 -15.5177416 -17.9032416
  -3.3767416   7.4522584 -18.5112416  -2.4197416   7.4442584 -18.5172416
  -3.6167416   6.9322584 -17.7442416   0.2862584 -16.9847416   7.2367584
   0.9862584 -17.4127416   6.7447584  -0.3507416 -16.7247416   6.5717584
   7.1932584 -18.2537416 -10.6452416   6.4812584 -18.8787416 -10.5082416
   6.8172584 -17.4057416 -10.4112416 -14.8837416 -20.6367416 -12.3192416
 -14.4207416 -20.1617416 -11.6292416 -15.1947416 -19.9537416 -12.9132416
   3.2562584 -15.3637416 -16.5072416   3.9692584 -15.0897416 -17.0842416
   2.6692584 -15.8647416 -17.0732416   2.6052584  -0.7507416 -17.8482416
   2.6932584  -0.5657416 -18.7832416   3.4172584  -1.2007416 -17.6152416
   5.5592584 -16.0987416  -0.0792416   5.9972584 -15.5727416  -0.7482416
   5.2532584 -16.8757416  -0.5472416  -9.1007416 -20.7577416   9.4137584
  -9.9977416 -20.8907416   9.7187584  -8.5617416 -20.8737416  10.1967584
  -1.8647416 -17.1817416  -1.6252416  -2.2247416 -17.6597416  -2.3722416
  -1.2827416 -16.5297416  -2.0162416  -3.2547416  -8.1107416   9.9397584
  -3.1857416  -8.6327416  10.7397584  -2.8677416  -8.6617416   9.2597584
   6.5982584 -11.7887416 -18.1642416   6.9762584 -11.9487416 -19.0282416
   6.0812584 -12.5737416 -17.9792416 -20.2037416  -5.1807416   8.2247584
 -20.4377416  -5.5237416   7.3627584 -19.2717416  -5.3807416   8.3177584
 -21.8307416  -7.6427416   7.4157584 -21.5287416  -7.5557416   8.3197584
 -21.0627416  -7.9507416   6.9347584   1.3062584 -19.8307416   8.7347584
   1.9742584 -20.1357416   8.1207584   1.5992584 -18.9567416   8.9927584
  -1.0427416  -8.2047416 -16.9962416  -1.0327416  -7.8587416 -17.8882416
  -1.8507416  -8.7157416 -16.9462416 -22.1237416 -17.0847416   7.1997584
 -21.9847416 -17.2307416   6.2647584 -21.9297416 -16.1567416   7.3297584
   5.2242584   4.2042584 -19.1792416   4.8452584   4.8182584 -19.8092416
   5.9842584   4.6652584 -18.8242416 -19.8897416 -11.3097416   3.5397584
 -20.4807416 -10.7417416   3.0447584 -19.3067416 -10.7057416   3.9997584
  -1.6127416 -16.5657416   5.0277584  -2.4567416 -16.3017416   5.3927584
  -1.5507416 -17.5017416   5.2177584   3.7372584 -15.9867416   6.5587584
   3.0142584 -16.5997416   6.4257584   4.5162584 -16.4717416   6.2857584
   5.9532584   6.6182584 -16.3322416   6.0692584   5.7192584 -16.0242416
   6.6712584   6.7562584 -16.9492416 -20.1577416 -14.4937416   3.9497584
 -19.8907416 -13.6817416   3.5177584 -20.7027416 -14.9417416   3.3017584
  -0.3737416   2.9052584 -18.5612416  -1.1497416   2.8332584 -18.0052416
  -0.3007416   2.0492584 -18.9832416   4.2022584 -13.8117416   1.5297584
   4.3572584 -13.9987416   2.4557584   3.3682584 -14.2407416   1.3357584
 -19.5717416  -2.8677416   5.4107584 -20.1967416  -3.5917416   5.4347584
 -18.7237416  -3.2747416   5.5877584 -17.6237416  -6.3207416   9.3507584
 -17.5567416  -6.9197416   8.6077584 -16.7157416  -6.1487416   9.6017584
  -3.2497416  -2.3067416 -14.5882416  -2.9787416  -3.0647416 -15.1052416
  -3.2347416  -1.5767416 -15.2072416   4.1332584 -10.9947416 -13.8322416
   4.4902584 -10.1297416 -13.6342416   4.7362584 -11.3607416 -14.4802416
  -0.6197416 -14.2167416   3.8537584  -0.1737416 -14.3357416   3.0157584
  -0.8217416 -15.1057416   4.1467584 -21.0927416 -16.8177416 -15.1532416
 -21.4137416 -17.2347416 -15.9532416 -21.7207416 -17.0767416 -14.4792416
   3.9052584   7.3282584 -18.1562416   4.7252584   6.9772584 -17.8092416
   3.5252584   7.8172584 -17.4262416 -16.6447416  -0.0347416   5.9987584
 -16.1837416   0.7432584   5.6857584 -16.0057416  -0.7427416   5.9127584
   1.3692584  -3.0567416 -17.6142416   1.7272584  -2.1917416 -17.8152416
   2.0212584  -3.4587416 -17.0392416   5.0822584 -18.6267416 -18.5912416
   4.3322584 -19.1997416 -18.4302416   4.7642584 -17.7497416 -18.3802416
  -5.2177416 -15.6207416   2.4847584  -4.8797416 -16.5147416   2.5347584
  -4.5667416 -15.1457416   1.9677584  -4.1737416 -17.7727416   8.3187584
  -3.3607416 -18.2707416   8.2337584  -4.2207416 -17.5457416   9.2477584
  -2.7387416 -14.9637416   1.2967584  -2.3957416 -15.8257416   1.0617584
  -1.9597416 -14.4287416   1.4487584   6.6072584 -18.3997416  -3.3082416
   6.4302584 -19.1807416  -2.7832416   6.1002584 -17.7067416  -2.8842416
  -4.9267416 -13.9407416   4.7417584  -5.0487416 -14.8897416   4.7117584
  -5.7907416 -13.5947416   4.9677584   7.0432584 -18.9717416   9.3277584
   6.5052584 -18.6417416  10.0467584   6.9132584 -18.3397416   8.6207584
   1.1942584 -16.8587416 -14.3092416   1.0782584 -17.0427416 -15.2412416
   1.4412584 -17.7007416 -13.9272416   5.8912584 -16.5847416   4.5927584
   6.4222584 -15.9007416   5.0017584   6.4642584 -17.3507416   4.5677584
 -20.2897416 -17.7747416   9.6137584 -20.4667416 -16.8357416   9.6567584
 -20.8017416 -18.0827416   8.8657584 -12.9167416  -9.7597416  -2.2012416
 -12.6057416 -10.3417416  -1.5082416 -12.6837416 -10.2097416  -3.0142416
 -20.5527416  -5.6037416   5.3317584 -21.3137416  -6.0967416   5.0267584
 -19.7997416  -6.1137416   5.0327584  -2.8037416 -12.3617416   4.0287584
  -2.0057416 -12.8897416   4.0757584  -3.5027416 -12.9607416   4.2927584
   0.7992584  -8.8447416  -5.1872416   0.5002584  -8.9377416  -6.0912416
   1.0592584  -7.9267416  -5.1132416   0.2902584 -14.4717416   1.3517584
   0.7652584 -13.7757416   0.8977584   0.7762584 -15.2697416   1.1417584
 -22.6857416 -14.3917416   5.6557584 -21.8057416 -14.2577416   5.3017584
 -23.1287416 -13.5537416   5.5207584  -1.5237416 -17.3527416  -9.1432416
  -0.6357416 -17.1347416  -8.8602416  -1.8497416 -16.5487416  -9.5492416
 -17.5287416 -10.0097416 -11.8322416 -17.9617416 -10.6427416 -11.2582416
 -17.2317416  -9.3167416 -11.2432416 -16.7547416 -15.5267416  -6.3902416
 -16.0447416 -15.6397416  -7.0222416 -16.8267416 -14.5797416  -6.2762416
 -22.2977416 -11.7997416  -5.4822416 -22.9797416 -11.7847416  -4.8102416
 -22.5817416 -12.4767416  -6.0972416  -0.7997416  -7.6187416  -3.2622416
  -0.1587416  -8.1867416  -3.6902416  -0.3167416  -7.2147416  -2.5412416
 -19.6697416  -5.6567416  -1.9382416 -19.5187416  -4.8297416  -1.4812416
 -20.4827416  -5.5177416  -2.4242416   1.3072584 -17.8497416   1.7427584
   1.7812584 -17.0897416   1.4037584   1.7352584 -18.0467416   2.5757584
 -22.9327416 -12.3377416   8.0697584 -22.3667416 -12.0687416   7.3457584
 -22.3537416 -12.8167416   8.6627584  -9.0647416 -15.1127416  -3.7412416
  -8.5617416 -14.7177416  -4.4532416  -9.3787416 -14.3677416  -3.2282416
 -18.8927416  -7.2497416   0.7157584 -19.4827416  -6.5197416   0.9007584
 -18.9367416  -7.3587416  -0.2342416  -3.4537416 -12.4707416   0.5847584
  -3.8367416 -11.6677416   0.9377584  -3.6947416 -13.1497416   1.2157584
  -5.5907416 -19.3237416  -5.1172416  -5.3497416 -19.8817416  -4.3772416
  -5.8107416 -18.4807416  -4.7202416 -17.3457416  -7.2487416   6.7567584
 -17.9557416  -7.8837416   6.3797584 -16.5387416  -7.7437416   6.8937584
 -16.6307416 -17.9197416   4.4807584 -15.7747416 -18.1317416   4.8537584
 -17.1797416 -17.7207416   5.2387584 -22.1557416  -7.4417416   4.1447584
 -23.0947416  -7.6177416   4.2007584 -21.8257416  -8.0947416   3.5277584
 -20.7527416  -9.0607416   2.2917584 -20.0287416  -8.5167416   1.9827584
 -21.4877416  -8.8267416   1.7257584   4.6672584 -13.2697416 -12.0032416
   4.2722584 -12.5097416 -12.4312416   4.6462584 -13.9567416 -12.6692416
 -18.1677416 -13.3597416 -19.0192416 -18.2567416 -12.4237416 -18.8402416
 -17.2267416 -13.5257416 -18.9642416 -19.2277416 -16.2717416  -4.6572416
 -18.5197416 -15.8187416  -5.1162416 -19.9597416 -15.6547416  -4.6762416
  -8.4387416 -12.9707416   1.1107584  -8.3797416 -12.0187416   1.1877584
  -8.4087416 -13.1377416   0.1687584 -20.3727416   7.8822584   1.9417584
 -21.0397416   7.1972584   1.9237584 -20.6627416   8.5172584   1.2867584
 -21.0967416 -17.0067416  -2.0182416 -21.5387416 -17.4527416  -2.7412416
 -21.7257416 -16.3487416  -1.7222416 -19.0207416 -18.4267416 -13.8392416
 -18.0667416 -18.3497416 -13.8062416 -19.3037416 -17.6817416 -14.3692416
  -0.4967416 -11.2097416   2.3837584  -1.0857416 -10.4597416   2.2937584
  -1.0437416 -11.8997416   2.7607584  -4.2907416   4.1352584 -18.6632416
  -4.1937416   5.0372584 -18.3572416  -3.6097416   4.0342584 -19.3292416
   1.5132584  -6.2477416  -5.9472416   0.9312584  -5.5187416  -6.1602416
   2.0752584  -5.9097416  -5.2492416  -0.2597416  -5.9887416 -15.0922416
  -0.9177416  -5.4777416 -15.5642416  -0.3167416  -6.8647416 -15.4732416
  -3.2527416 -21.5067416  -2.1432416  -2.9547416 -21.2167416  -3.0052416
  -4.1267416 -21.1287416  -2.0512416  -0.8357416   8.1652584 -15.0902416
  -1.3147416   8.9872584 -14.9942416  -0.5137416   7.9702584 -14.2102416
  -3.0287416   2.4322584  -5.8202416  -2.5287416   2.5752584  -6.6242416
  -2.4267416   1.9612584  -5.2442416  -6.5697416 -18.9727416 -12.3442416
  -6.3087416 -19.8487416 -12.6272416  -5.7497416 -18.5457416 -12.0982416
  -4.9517416 -17.9167416 -10.5572416  -4.7847416 -16.9867416 -10.4012416
  -5.1117416 -18.2817416  -9.6872416  -2.4777416   2.5422584 -16.5562416
  -3.2017416   3.0312584 -16.9452416  -2.5567416   2.7042584 -15.6162416
  -1.1077416 -21.5537416   0.0257584  -0.4957416 -21.7677416  -0.6792416
  -1.8507416 -21.1447416  -0.4182416   4.3422584  -0.1507416 -11.2542416
   4.2102584   0.4332584 -10.5072416   3.5592584  -0.7007416 -11.2712416
  -1.6927416 -19.4547416 -14.6412416  -1.6957416 -18.9057416 -13.8562416
  -1.2457416 -18.9257416 -15.3022416  -0.7987416 -11.4257416  -3.1602416
  -0.8237416 -11.2467416  -4.1012416   0.0812584 -11.7707416  -3.0052416
  -6.1977416  -3.4747416  -6.0252416  -6.0777416  -4.0647416  -6.7692416
  -5.3597416  -3.0217416  -5.9412416   5.0572584  -4.1337416 -10.0192416
   4.9402584  -4.2677416  -9.0792416   5.5012584  -3.2877416 -10.0872416
 -21.7737416   4.0382584  -5.4092416 -22.5977416   3.6742584  -5.0872416
 -21.5757416   3.5262584  -6.1932416 -20.8727416   8.1222584  -0.7382416
 -20.5597416   7.2182584  -0.7252416 -21.2957416   8.2172584  -1.5922416
 -21.6507416  -3.1047416   0.6597584 -22.5357416  -2.7847416   0.4857584
 -21.7717416  -4.0197416   0.9147584 -20.7267416   6.7682584 -15.8722416
 -21.1587416   7.2092584 -16.6032416 -20.3397416   7.4782584 -15.3592416
  -5.3477416  -1.9507416 -12.4472416  -6.2357416  -2.2957416 -12.3532416
  -5.0857416  -2.2017416 -13.3332416   3.8682584  -4.0017416  -5.8212416
   3.4722584  -3.7817416  -4.9772416   4.0052584  -4.9487416  -5.7812416
  -2.8747416   1.9812584 -13.9282416  -3.3477416   1.1492584 -13.9112416
  -1.9607416   1.7402584 -13.7772416   0.2372584   0.0602584  -5.8892416
  -0.2377416   0.0442584  -6.7202416   1.1452584  -0.1257416  -6.1282416
  -1.2807416   5.4582584 -15.4462416  -0.9737416   5.1372584 -16.2942416
  -1.0057416   6.3752584 -15.4232416  -0.2407416   1.6172584 -13.1312416
  -0.2927416   0.8332584 -12.5842416   0.6772584   1.6642584 -13.3982416
 -20.0707416   1.6762584   2.3237584 -19.9177416   2.0452584   1.4547584
 -20.2597416   2.4342584   2.8767584   2.4222584 -18.3187416  -6.9702416
   2.0492584 -18.9257416  -7.6092416   3.2782584 -18.0867416  -7.3302416
 -19.7537416   5.2022584  -3.8082416 -20.3947416   4.7282584  -4.3372416
 -19.6907416   6.0632584  -4.2212416   1.3052584   0.2602584 -15.6452416
   1.9502584   0.8832584 -15.3112416   1.6302584   0.0192584 -16.5122416
   2.5162584  -5.0457416 -15.6502416   2.6232584  -5.7017416 -16.3392416
   1.6822584  -5.2677416 -15.2352416 -21.5987416   2.8132584   9.5957584
 -22.0547416   2.0232584   9.8847584 -20.6877416   2.5392584   9.4877584
  -1.3097416  -3.8887416 -10.3892416  -2.1197416  -3.6007416  -9.9682416
  -1.5997416  -4.3957416 -11.1472416  -1.4977416  -0.2677416  -8.4732416
  -2.4347416  -0.1847416  -8.2962416  -1.4507416  -0.6437416  -9.3522416
  -0.0387416  -2.2537416  -2.0012416  -0.5057416  -1.5027416  -2.3692416
   0.6192584  -1.8667416  -1.4232416  -3.0937416  -0.0257416 -11.7892416
  -3.6887416  -0.6937416 -12.1302416  -2.2957416  -0.5057416 -11.5702416
   0.8972584  -3.8177416  -8.8672416   1.3462584  -4.6317416  -9.0942416
   0.1462584  -3.7857416  -9.4602416   4.6642584   4.2702584 -12.8732416
   4.9512584   3.3672584 -12.7432416   4.5892584   4.3642584 -13.8232416
  -5.7817416   1.1442584  -1.7112416  -5.9257416   0.4492584  -2.3542416
  -6.0307416   1.9482584  -2.1662416   2.7092584 -19.4247416 -17.1062416
   1.8902584 -18.9317416 -17.1512416   2.4722584 -20.2467416 -16.6772416
   5.0312584  -5.0877416 -14.4192416   4.3582584  -5.1207416 -15.0992416
   5.4202584  -4.2167416 -14.5082416  -4.6447416 -10.1177416  -1.2492416
  -4.6937416  -9.8767416  -0.3242416  -3.7787416  -9.8207416  -1.5282416
 -11.0117416 -17.3847416  -3.9142416 -11.7487416 -17.1787416  -3.3382416
 -10.3097416 -16.8037416  -3.6222416   1.8212584   8.1472584 -16.1152416
   0.8742584   8.0342584 -16.0392416   2.1752584   7.7382584 -15.3252416
   1.3482584   6.9032584 -10.7092416   2.1802584   6.4302584 -10.6942416
   0.7172584   6.2902584 -10.3322416   4.8232584   6.7772584 -11.7942416
   4.7602584   5.8252584 -11.8752416   4.7482584   6.9422584 -10.8542416
   5.8362584   1.8512584 -17.2482416   6.7402584   2.1562584 -17.1802416
   5.4232584   2.4582584 -17.8622416  -4.7047416   7.7682584  -5.5312416
  -3.9817416   8.3912584  -5.4632416  -4.2857416   6.9372584  -5.7532416
 -21.9237416  -5.6727416   1.6157584 -21.7867416  -5.9187416   2.5307584
 -22.7637416  -6.0697416   1.3837584 -15.6727416   2.0642584  -1.8632416
 -15.8467416   2.8762584  -2.3372416 -15.3237416   1.4682584  -2.5262416
 -17.9937416  -0.9607416   0.9537584 -17.9077416  -0.0327416   1.1717584
 -17.9197416  -1.4127416   1.7937584  -7.3457416   1.8962584 -16.3442416
  -6.8627416   1.7142584 -17.1502416  -7.4407416   1.0412584 -15.9242416
  -9.2957416   6.3532584  -4.0172416  -8.3597416   6.2842584  -3.8302416
  -9.5427416   5.4842584  -4.3332416   2.3602584   3.5932584 -17.5692416
   1.4492584   3.3022584 -17.5532416   2.5812584   3.6392584 -18.4992416
  -1.6527416   5.6002584 -12.8322416  -1.3877416   5.3732584 -13.7232416
  -1.2707416   6.4642584 -12.6802416  -6.7597416 -17.0017416  -3.6092416
  -6.7257416 -17.0557416  -2.6542416  -7.3537416 -16.2717416  -3.7862416
 -19.9267416   5.8972584  -7.1132416 -20.7827416   5.4722584  -7.1652416
 -19.5387416   5.7642584  -7.9772416   5.8852584  -2.3647416 -15.5182416
   6.7532584  -2.7427416 -15.6632416   5.3552584  -2.6977416 -16.2422416
   4.5132584  -2.6757416 -17.8382416   5.0062584  -2.3907416 -18.6082416
   4.5402584  -3.6317416 -17.8762416 -22.6357416   4.3062584 -15.7382416
 -22.2037416   3.7642584 -16.3992416 -21.9627416   4.9272584 -15.4602416
  -0.8997416  -1.3007416 -11.0942416  -1.0147416  -2.2447416 -10.9912416
  -0.3947416  -1.2067416 -11.9012416  -1.9857416   4.2162584  -7.8342416
  -2.2027416   4.3792584  -8.7522416  -2.0107416   5.0802584  -7.4242416
   4.5502584 -20.3857416 -13.1132416   4.8242584 -19.9027416 -13.8932416
   5.2072584 -21.0747416 -13.0142416  -4.3137416  -0.6727416  -8.0402416
  -4.5167416  -1.3027416  -8.7312416  -4.9357416   0.0412584  -8.1752416
   4.7862584   7.3572584  -8.9422416   4.6452584   7.8052584  -8.1082416
   5.6952584   7.0612584  -8.9062416 -12.9087416   6.7582584  -1.8122416
 -12.2587416   6.0572584  -1.8592416 -13.7457416   6.3212584  -1.9702416
 -22.1837416   3.5192584   0.4457584 -21.2557416   3.3022584   0.5327584
 -22.2157416   4.1502584  -0.2722416 -10.5367416  -5.1407416   9.3957584
  -9.8557416  -4.4687416   9.4257584 -10.3527416  -5.6337416   8.5957584
   6.6982584 -11.9567416 -15.4412416   6.4302584 -12.1247416 -16.3442416
   7.5322584 -12.4167416 -15.3482416 -21.8857416   8.3932584  -9.4322416
 -21.3877416   7.8322584 -10.0282416 -22.7287416   8.5172584  -9.8682416
 -22.6777416 -21.2867416 -13.2362416 -22.6727416 -21.3587416 -14.1912416
 -22.1327416 -22.0147416 -12.9382416  -2.7007416   4.7482584 -10.4232416
  -2.4237416   4.8032584 -11.3372416  -2.9277416   5.6472584 -10.1862416
  -5.0037416 -20.0677416 -17.3652416  -4.9887416 -20.2577416 -16.4272416
  -4.8107416 -20.9077416 -17.7832416  -1.5217416  -0.1247416 -16.1772416
  -0.6157416   0.0362584 -15.9142416  -1.8777416   0.7452584 -16.3542416
   3.1332584   1.5112584  -9.2062416   2.2342584   1.3332584  -8.9312416
   3.0712584   2.3132584  -9.7252416 -14.9607416 -16.9117416   9.4507584
 -14.5857416 -16.8267416  10.3267584 -15.4437416 -17.7377416   9.4747584
 -22.2557416   1.4672584 -10.9942416 -22.6207416   1.8722584 -11.7802416
 -22.9497416   1.5452584 -10.3392416  -1.7147416 -18.7187416   8.3377584
  -1.1777416 -19.2997416   8.8767584  -1.1007416 -18.0627416   8.0067584
  -3.7127416   3.6902584  -1.7492416  -3.9617416   3.9552584  -0.8642416
  -4.2877416   2.9512584  -1.9492416  -3.0177416   5.7472584   3.9127584
  -2.2677416   5.5772584   3.3427584  -3.2037416   6.6792584   3.7917584
   3.2722584   7.0902584 -14.0532416   3.7112584   7.3802584 -13.2532416
   3.7242584   6.2812584 -14.2942416  -0.8077416   5.9812584 -18.3622416
   0.1172584   6.0462584 -18.5992416  -1.0787416   5.1232584 -18.6892416
  -5.1937416  -0.8207416 -16.1562416  -5.3917416  -1.6717416 -16.5482416
  -5.0337416  -0.2447416 -16.9032416  -3.6227416   0.8262584  -0.0072416
  -3.9307416   0.4862584   0.8327584  -4.4107416   0.8812584  -0.5472416
   6.5262584  -1.4587416  -9.7692416   7.3322584  -1.0577416 -10.0952416
   5.9062584  -1.3707416 -10.4932416   6.9322584 -20.3157416   3.3467584
   7.1652584 -20.9677416   2.6857584   5.9902584 -20.4307416   3.4757584
 -21.3227416  -1.0527416   6.7407584 -20.8157416  -1.6817416   6.2267584
 -21.9287416  -0.6617416   6.1107584   3.8212584 -16.3967416  10.7757584
   2.9972584 -16.7937416  10.4937584   3.8162584 -15.5267416  10.3767584
 -19.9637416   4.1462584   3.7687584 -19.0377416   3.9312584   3.6537584
 -19.9587416   5.0022584   4.1977584   3.3102584 -20.8887416   7.1587584
   3.0802584 -21.4777416   6.4407584   4.1032584 -21.2687416   7.5367584
 -19.0107416 -18.9257416 -17.8442416 -19.6477416 -18.4677416 -18.3932416
 -19.5377416 -19.5117416 -17.3022416  -2.0687416 -17.6637416   0.8667584
  -1.9437416 -17.6137416  -0.0802416  -1.1977416 -17.5127416   1.2327584
  -5.9707416 -20.3557416   7.7097584  -5.3307416 -20.9707416   8.0697584
  -5.6837416 -19.4987416   8.0247584   3.3512584   4.8382584 -15.4712416
   2.8602584   5.6472584 -15.3282416   3.0032584   4.4892584 -16.2912416
  -5.7667416   6.8462584   5.4377584  -5.2257416   6.9402584   6.2217584
  -5.6317416   5.9402584   5.1607584   0.8132584   3.3872584   2.6957584
   0.0452584   3.0332584   2.2467584   1.3432584   3.7722584   1.9977584
  -1.5537416   1.9512584   1.4077584  -2.2887416   1.5162584   0.9767584
  -1.9507416   2.4272584   2.1367584 -19.6337416   8.1322584   4.4847584
 -19.9117416   7.9342584   3.5907584 -19.1977416   8.9822584   4.4187584
   1.6152584 -12.1497416   0.7357584   2.4462584 -11.9347416   1.1597584
   0.9472584 -11.8087416   1.3307584 -20.1027416  -0.4047416 -18.8452416
 -20.9437416   0.0532584 -18.8362416 -19.9167416  -0.5447416 -19.7742416
  -4.2327416   5.0072584   0.5987584  -3.4097416   5.4402584   0.8247584
  -4.8717416   5.3722584   1.2097584   1.1512584 -19.8987416   3.9817584
   0.2772584 -19.6197416   4.2567584   1.1942584 -20.8247416   4.2207584
   0.7862584  -1.1197416 -13.2772416   1.6482584  -1.5187416 -13.1582416
   0.8172584  -0.7357416 -14.1532416  -1.7877416   0.3902584  -2.0342416
  -2.1657416   0.4952584  -1.1602416  -1.3497416   1.2232584  -2.2082416
   6.5512584 -15.0997416   2.3617584   6.1622584 -15.3947416   1.5387584
   6.2192584 -15.7127416   3.0177584 -17.7677416  -1.3057416   3.9377584
 -17.3737416  -0.7597416   4.6177584 -18.5737416  -1.6377416   4.3337584
  -0.4907416 -20.9627416 -19.3602416   0.0422584 -21.2397416 -18.6152416
   0.1452584 -20.7487416 -20.0432416 -20.7427416 -19.1237416   0.2597584
 -20.7707416 -18.4647416  -0.4342416 -21.4147416 -19.7597416   0.0147584
  -6.7787416   7.6942584  -0.7902416  -7.7157416   7.6072584  -0.9672416
  -6.6707416   7.3592584   0.0997584  -2.4207416   2.6422584   3.8237584
  -2.7237416   3.5412584   3.9497584  -2.9677416   2.1202584   4.4107584
 -21.9377416 -15.3487416 -18.4752416 -21.6087416 -14.8947416 -19.2512416
 -21.1937416 -15.3677416 -17.8742416 -18.2437416   4.2962584   6.5937584
 -19.1787416   4.4622584   6.7107584 -18.1057416   3.4252584   6.9677584
 -12.8057416   4.6672584   2.5887584 -11.9787416   4.1962584   2.6937584
 -12.5457416   5.5792584   2.4527584  -9.6927416   7.6812584  -1.2762416
  -9.3857416   7.0922584  -1.9652416 -10.4617416   8.1092584  -1.6522416
 -18.6857416  -7.8907416  24.3807584 -18.7857416  -7.1417416  24.9677584
 -18.1407416  -8.5077416  24.8687584  -1.5187416 -16.3027416  40.5507584
  -2.2657416 -16.6117416  41.0637584  -1.8867416 -15.6397416  39.9667584
 -15.8427416   5.7082584  14.7527584 -16.5477416   5.1512584  15.0827584
 -15.8177416   6.4472584  15.3607584  -1.6817416 -20.4167416  32.3547584
  -1.8417416 -21.2657416  31.9427584  -1.1717416 -19.9277416  31.7087584
 -16.0957416  -2.8557416  32.0897584 -16.4227416  -2.2007416  32.7077584
 -15.1537416  -2.6927416  32.0447584 -10.9217416  -9.5977416  22.7007584
 -11.5167416 -10.3207416  22.8997584 -10.0497416  -9.9897416  22.7287584
 -16.9277416 -14.5967416  19.3207584 -17.3927416 -15.3937416  19.0677584
 -16.9037416 -14.0697416  18.5217584 -22.1707416  -7.4927416  19.1557584
 -22.9937416  -7.1727416  18.7837584 -21.8977416  -8.1937416  18.5647584
 -13.7427416 -12.8837416  28.4457584 -14.3487416 -13.3167416  29.0477584
 -13.4127416 -13.5897416  27.8897584 -11.5807416 -10.2177416  16.3237584
 -12.1647416  -9.7677416  16.9337584 -11.1277416 -10.8687416  16.8597584
  -5.3397416  -6.3387416  28.5277584  -4.8587416  -6.4217416  29.3517584
  -4.6747416  -6.4577416  27.8497584 -17.1917416  -7.8797416  19.5697584
 -17.0417416  -7.8487416  20.5147584 -18.0527416  -7.4797416  19.4497584
 -20.2737416 -14.4027416  39.4667584 -19.5327416 -13.9907416  39.9127584
 -19.9437416 -14.6057416  38.5917584   5.2302584 -16.0027416  16.1687584
   4.2902584 -15.8827416  16.0327584   5.4092584 -16.8867416  15.8497584
 -12.1217416  -5.5817416  17.2847584 -11.6727416  -4.7407416  17.3687584
 -12.9297416  -5.4727416  17.7867584  -4.3747416 -16.7087416  35.6657584
  -4.6917416 -17.0517416  36.5007584  -4.4347416 -17.4497416  35.0627584
   5.9932584 -11.6267416  26.3927584   5.0542584 -11.5657416  26.2187584
   6.0502584 -11.9697416  27.2847584 -20.4177416  -0.7957416  14.4657584
 -19.6247416  -0.2597416  14.4667584 -20.1337416  -1.6457416  14.8017584
 -13.1517416   2.4372584  40.8057584 -13.7587416   3.0282584  40.3607584
 -12.2837416   2.7812584  40.5947584  -9.2767416  -6.8877416  11.1547584
  -9.9057416  -7.5887416  11.3257584  -9.7287416  -6.3027416  10.5467584
 -18.3747416   7.2202584  36.8537584 -17.9087416   6.5432584  36.3627584
 -19.0227416   7.5612584  36.2367584 -21.2177416 -13.6977416  15.7577584
 -20.8937416 -14.4857416  15.3227584 -20.4317416 -13.2717416  16.1007584
 -18.4287416 -19.8707416  27.2577584 -19.3597416 -19.7337416  27.0837584
 -18.0387416 -19.9947416  26.3927584  -5.8287416  -7.1847416  39.0047584
  -4.9867416  -7.5827416  39.2257584  -5.6657416  -6.7197416  38.1837584
 -11.7877416 -19.3847416  28.7657584 -12.0497416 -18.4637416  28.7587584
 -11.1147416 -19.4377416  29.4437584  -7.6517416 -20.8857416  19.4917584
  -8.0417416 -20.1377416  19.0397584  -7.7167416 -21.6057416  18.8647584
 -15.9317416   5.3602584  20.3777584 -15.7147416   6.2432584  20.6757584
 -15.7897416   5.3842584  19.4317584 -10.5297416 -12.4897416  37.5797584
 -10.9307416 -11.7387416  37.1437584  -9.8207416 -12.1137416  38.1017584
 -14.4527416 -15.1817416  14.1217584 -13.7887416 -14.6597416  13.6717584
 -14.8187416 -14.5887416  14.7787584   1.5782584 -12.1547416  27.9847584
   1.9142584 -13.0477416  27.9147584   1.4842584 -12.0067416  28.9257584
 -15.0127416  -7.7957416  17.7117584 -15.6477416  -8.0567416  18.3787584
 -14.4417416  -8.5577416  17.6127584 -13.7207416 -18.7587416  22.9207584
 -13.5407416 -18.3027416  22.0987584 -13.0337416 -18.4597416  23.5177584
 -15.1577416  -4.2647416  23.1217584 -15.6737416  -3.6717416  23.6687584
 -15.1927416  -5.1047416  23.5797584  -0.3517416 -17.9607416  13.2837584
  -1.1247416 -17.9907416  12.7197584  -0.0087416 -17.0737416  13.1727584
 -15.5987416 -13.3627416  40.4717584 -15.4467416 -12.8237416  41.2477584
 -14.7417416 -13.4247416  40.0507584 -12.3967416   4.3182584  37.4147584
 -12.4047416   4.7172584  36.5447584 -13.1907416   4.6472584  37.8367584
 -18.1197416 -17.9547416  22.9667584 -18.9727416 -17.6157416  22.6927584
 -17.5757416 -17.1747416  23.0737584  -9.6597416  -9.2467416  37.6777584
  -9.2327416  -9.5187416  36.8647584  -8.9447416  -9.1617416  38.3077584
  -7.2357416 -17.0637416  33.8277584  -6.6837416 -16.4227416  33.3797584
  -7.5397416 -17.6467416  33.1327584 -17.8897416  -7.4857416  16.6737584
 -17.5637416  -8.2847416  17.0887584 -18.4107416  -7.0577416  17.3527584
 -10.8647416 -16.6347416  29.0507584  -9.9957416 -16.2487416  28.9437584
 -11.0407416 -16.5737416  29.9897584 -19.8067416   2.1552584  15.6127584
 -20.2467416   1.5652584  16.2247584 -19.0157416   1.6842584  15.3507584
 -13.4157416 -15.5677416  24.1797584 -14.3387416 -15.7447416  24.3607584
 -13.2617416 -15.9557416  23.3187584 -16.3477416  -2.5187416  24.8307584
 -17.0097416  -2.6097416  25.5157584 -15.7167416  -1.8947416  25.1887584
 -10.0797416 -16.8237416  23.6547584  -9.2507416 -17.2897416  23.5427584
 -10.4367416 -17.1647416  24.4757584 -11.8877416  -6.0507416  22.5207584
 -12.7357416  -6.4577416  22.3447584 -12.0777416  -5.1137416  22.5757584
 -11.5287416 -12.9137416  19.9697584 -11.4657416 -13.6227416  20.6107584
 -12.1337416 -12.2867416  20.3637584 -15.4297416   7.2462584  12.2997584
 -16.1257416   6.7212584  11.9047584 -15.5197416   7.0942584  13.2407584
 -16.7997416 -20.6857416  15.0827584 -15.9507416 -21.0947416  14.9137584
 -16.6457416 -19.7507416  14.9507584 -13.3947416 -12.8447416  17.1837584
 -12.9057416 -13.1107416  17.9627584 -12.7877416 -12.2837416  16.7007584
 -11.8387416  -3.1697416  26.5857584 -11.2037416  -3.6827416  26.0857584
 -12.6677416  -3.6327416  26.4687584 -13.7337416 -11.4847416  20.5987584
 -13.4977416 -11.2447416  21.4947584 -14.6667416 -11.6957416  20.6447584
 -10.6157416 -18.5387416  17.2687584 -10.2237416 -18.0587416  17.9987584
  -9.9807416 -19.2257416  17.0637584 -20.0427416 -11.2447416  26.5587584
 -20.6087416 -10.7727416  25.9477584 -20.6487416 -11.6977416  27.1457584
 -19.0137416 -15.6367416  29.1657584 -18.2707416 -16.1717416  28.8877584
 -19.7647416 -16.0117416  28.7047584 -15.5417416 -16.0787416  21.3897584
 -16.1567416 -15.5007416  20.9377584 -15.1657416 -16.6197416  20.6957584
 -18.3167416 -17.2507416  19.2307584 -18.9877416 -17.8887416  19.4707584
 -18.0547416 -17.4987416  18.3447584  -4.6007416 -10.3687416  21.7117584
  -4.0167416 -10.4077416  20.9547584  -5.4777416 -10.4717416  21.3447584
 -10.1907416 -18.8237416  13.2657584 -10.5587416 -18.4537416  12.4637584
  -9.5317416 -18.1867416  13.5437584   0.8722584  -2.3147416  36.2427584
   0.1382584  -2.6197416  36.7747584   1.2682584  -1.6127416  36.7597584
 -18.8107416 -11.5337416  29.8557584 -18.1007416 -12.0767416  29.5117584
 -18.6707416 -10.6747416  29.4567584  -9.2017416 -11.8727416  13.7877584
  -8.7247416 -12.6197416  14.1477584  -8.5857416 -11.1417416  13.8507584
 -12.1257416 -10.2807416  11.0947584 -11.8437416  -9.6007416  10.4827584
 -12.2127416  -9.8267416  11.9337584 -16.6087416   7.2202584  18.0117584
 -17.1837416   7.7562584  18.5567584 -15.8677416   7.7912584  17.8087584
  -7.1677416 -14.9537416  19.6067584  -7.1867416 -14.9537416  20.5637584
  -6.2657416 -14.7197416  19.3857584 -15.4497416  -6.6177416  24.7257584
 -16.0657416  -6.9047416  25.3997584 -15.0947416  -7.4307416  24.3647584
 -21.2307416 -19.7287416  22.9987584 -21.1367416 -20.1677416  22.1537584
 -21.0257416 -18.8117416  22.8177584 -13.0087416  -8.0027416  31.3217584
 -12.8947416  -8.9527416  31.3097584 -12.5817416  -7.6997416  30.5197584
 -16.9287416 -10.4317416  38.9727584 -16.1217416 -10.3567416  39.4807584
 -17.6107416 -10.5897416  39.6257584 -10.1757416  -8.4197416  24.9537584
 -10.5437416  -8.2277416  24.0907584  -9.8247416  -9.3067416  24.8727584
 -12.6637416 -13.0217416  13.5657584 -12.0067416 -12.9607416  12.8727584
 -12.2127416 -12.7127416  14.3517584 -18.0997416  -6.1457416  33.7477584
 -18.2427416  -5.6657416  32.9317584 -17.8357416  -5.4747416  34.3767584
 -19.8917416  -5.1107416  24.9827584 -19.2787416  -4.4607416  25.3247584
 -20.5617416  -5.1907416  25.6617584 -12.8337416 -19.9447416  19.7857584
 -11.9207416 -19.7817416  19.5487584 -12.7907416 -20.3107416  20.6687584
 -10.2907416 -12.1737416  17.6637584  -9.8827416 -12.6097416  16.9147584
 -10.1887416 -12.7927416  18.3867584  -4.5557416 -10.7527416  38.2167584
  -4.8667416 -10.6927416  37.3137584  -3.6077416 -10.6387416  38.1527584
 -17.7407416  -9.3677416  28.7647584 -16.9747416  -9.8497416  28.4527584
 -18.1177416  -8.9797416  27.9747584 -18.3367416 -14.5747416  31.7147584
 -18.4307416 -14.8487416  30.8017584 -18.3467416 -13.6187416  31.6807584
  -6.0077416 -12.7287416  32.5327584  -6.6807416 -13.3027416  32.1667584
  -5.4227416 -13.3177416  33.0087584  -5.4727416 -20.2507416  27.9917584
  -5.6607416 -19.4007416  28.3897584  -6.2147416 -20.8017416  28.2397584
 -18.4497416   3.0832584  23.7527584 -17.6247416   3.5152584  23.5297584
 -18.9327416   3.7342584  24.2607584 -16.7207416  -6.7077416  22.0627584
 -17.3397416  -6.1887416  21.5497584 -16.8107416  -6.3737416  22.9557584
 -14.3047416 -17.4277416  19.2317584 -13.9437416 -17.1117416  18.4037584
 -13.8257416 -18.2377416  19.4087584 -13.5847416   8.3922584  30.1737584
 -13.6857416   7.7532584  29.4687584 -13.0337416   9.0792584  29.7977584
 -16.9087416   4.6072584  26.4037584 -17.8297416   4.8352584  26.2787584
 -16.5507416   4.5612584  25.5177584 -18.6347416 -13.5257416  17.1777584
 -19.2067416 -13.2347416  17.8877584 -18.4837416 -12.7397416  16.6527584
 -19.2597416   7.6292584  25.0077584 -19.3537416   7.1652584  24.1757584
 -18.7287416   8.3972584  24.7957584 -15.1607416  -5.9767416  11.1807584
 -14.6687416  -6.6597416  11.6357584 -14.6567416  -5.1767416  11.3307584
 -13.0347416 -18.6817416  16.2607584 -12.1857416 -18.8307416  16.6787584
 -13.0067416 -19.2107416  15.4637584 -13.7807416  -5.1667416  26.2297584
 -14.0777416  -5.5557416  27.0517584 -14.4037416  -5.4847416  25.5757584
   2.1382584 -10.8567416  33.0537584   1.5992584 -11.4257416  33.6027584
   1.5412584 -10.1667416  32.7627584  -9.8147416 -15.4867416  31.5247584
  -9.5397416 -14.5727416  31.4537584  -9.3517416 -15.8167416  32.2947584
  -8.8147416 -11.5467416  39.7157584  -8.0877416 -12.1067416  39.9877584
  -8.4527416 -11.0117416  39.0087584  -7.7997416 -14.4487416  38.6677584
  -7.5747416 -14.5237416  39.5947584  -8.6567416 -14.8687416  38.5937584
 -17.0647416 -10.0157416  22.9057584 -17.2967416  -9.7967416  23.8087584
 -16.2217416  -9.5857416  22.7647584   6.2642584 -19.1977416  24.1997584
   6.3832584 -18.8427416  25.0807584   7.1532584 -19.3387416  23.8747584
  -7.4597416 -13.7037416  24.1897584  -7.3007416 -14.4237416  23.5797584
  -6.5867416 -13.4377416  24.4787584 -21.6067416  -3.7537416  40.0687584
 -20.9017416  -3.4677416  40.6487584 -21.1597416  -4.1957416  39.3477584
 -20.3307416  -8.1327416  22.1367584 -19.8397416  -8.2477416  22.9507584
 -20.4137416  -7.1837416  22.0397584 -18.7257416 -10.5937416  20.8107584
 -19.4487416  -9.9827416  20.9477584 -18.1197416 -10.4137416  21.5307584
 -20.3367416 -19.2967416  20.1057584 -20.8857416 -18.5587416  19.8387584
 -20.9247416 -20.0517416  20.0867584 -19.7867416  -5.4757416  22.2157584
 -19.8317416  -5.4057416  23.1697584 -19.6977416  -4.5717416  21.9127584
 -10.2327416  -7.3747416  27.3607584 -10.1187416  -7.8207416  26.5207584
  -9.4137416  -6.8967416  27.4917584  -7.0957416  -9.5027416  38.6447584
  -6.2587416  -9.9627416  38.7177584  -6.8937416  -8.5987416  38.8867584
 -13.3117416  -5.6347416  14.4937584 -13.0407416  -5.7667416  15.4027584
 -12.9007416  -4.8087416  14.2387584 -14.7617416  -3.2817416  27.8897584
 -14.9937416  -3.9887416  28.4917584 -14.5647416  -3.7247416  27.0647584
 -14.7867416 -20.5147416  24.6827584 -14.6197416 -19.7617416  24.1157584
 -14.2217416 -20.3717416  25.4437584 -18.9507416   6.7012584  16.7297584
 -19.2737416   7.5562584  16.4447584 -18.0667416   6.8732584  17.0517584
 -20.6837416   0.5652584  28.4797584 -19.9647416   0.2432584  27.9377584
 -20.4997416   1.4972584  28.5947584 -17.0037416  -5.4877416  14.9317584
 -16.2117416  -5.9237416  14.6177584 -17.1887416  -5.9047416  15.7737584
 -16.0717416 -11.1567416  27.5317584 -15.1357416 -11.3537416  27.4937584
 -16.4757416 -11.9677416  27.8407584 -13.7047416  -1.8357416  32.7197584
 -12.9397416  -2.1697416  32.2497584 -13.4597416  -0.9457416  32.9747584
  -9.3627416 -21.0017416  15.7447584  -8.5457416 -21.0227416  16.2417584
  -9.0887416 -21.0557416  14.8287584 -14.6757416  -4.2437416  20.3037584
 -14.6947416  -3.3257416  20.0307584 -14.8097416  -4.2147416  21.2507584
 -10.9457416 -12.6947416  11.4377584 -11.3337416 -11.8637416  11.1657584
 -10.0017416 -12.5397416  11.4117584  -8.7517416  -0.8597416  30.4847584
  -9.6247416  -1.0457416  30.8287584  -8.6927416  -1.3847416  29.6857584
 -14.0247416  -6.7387416  21.1317584 -14.9077416  -6.8937416  21.4687584
 -14.0767416  -5.8797416  20.7117584  -8.0747416 -16.5357416  17.3557584
  -7.5187416 -17.3117416  17.2867584  -7.5387416 -15.8967416  17.8257584
  -8.0657416  -3.1917416  39.4617584  -7.7827416  -2.3167416  39.1927584
  -7.5457416  -3.3827416  40.2417584  -8.0047416  -6.0727416  27.4807584
  -7.8937416  -5.2647416  26.9797584  -7.1337416  -6.2597416  27.8307584
 -15.0787416  -8.3137416  37.3877584 -15.3067416  -8.8307416  38.1607584
 -14.3807416  -7.7307416  37.6847584  -4.0007416  -2.9207416  40.1617584
  -3.6327416  -3.8027416  40.1107584  -3.3087416  -2.3517416  39.8247584
  -9.1307416  -9.5257416  18.9307584  -9.8487416  -9.1187416  19.4167584
  -9.4157416 -10.4287416  18.7937584 -18.3747416 -21.5957416  19.7717584
 -17.8527416 -21.2367416  20.4887584 -19.0987416 -20.9777416  19.6687584
 -19.6087416  -6.2787416  18.6147584 -20.2067416  -6.1517416  17.8787584
 -20.0807416  -6.8587416  19.2107584  -9.3147416 -11.3177416  26.0407584
  -8.6887416 -10.6037416  26.1607584  -8.7957416 -12.0307416  25.6657584
   5.9952584 -14.8137416  25.7367584   5.7882584 -15.2257416  24.8987584
   5.1712584 -14.4147416  26.0177584 -16.4557416  -9.0357416  31.4217584
 -17.0427416  -8.9297416  30.6727584 -15.9987416  -8.1977416  31.4887584
 -20.6127416 -19.1327416  25.6397584 -20.8207416 -19.5507416  24.8037584
 -20.0477416 -18.3957416  25.4047584  -2.4527416 -20.3737416  25.0137584
  -1.5617416 -20.5007416  24.6877584  -2.4787416 -19.4567416  25.2887584
 -11.5987416  -8.3347416  20.2507584 -11.3137416  -8.3797416  21.1627584
 -12.3377416  -7.7267416  20.2597584 -17.5177416  -4.9687416  11.8637584
 -16.6087416  -5.1647416  12.0927584 -17.7117416  -5.5547416  11.1327584
 -16.8457416 -20.2697416  21.4587584 -16.0977416 -19.6747416  21.5027584
 -17.6047416 -19.7157416  21.6427584  -8.7697416 -12.2637416  20.6517584
  -9.7207416 -12.3377416  20.5697584  -8.4297416 -13.0467416  20.2177584
  -8.9657416  -5.5727416  30.5347584  -9.4237416  -5.9597416  29.7887584
  -8.6537416  -4.7267416  30.2107584  -4.8427416 -16.7877416  10.9537584
  -5.7547416 -16.5197416  11.0697584  -4.6087416 -17.2067416  11.7827584
 -16.7247416  -9.8097416  13.7457584 -17.5447416  -9.3167416  13.7087584
 -16.0867416  -9.1877416  14.0947584  -2.0217416  -9.6057416  28.2207584
  -1.4757416 -10.3187416  27.8897584  -1.8957416  -8.8947416  27.5917584
  -6.7107416 -10.8187416  20.2017584  -7.4997416 -11.2077416  20.5787584
  -6.4737416 -11.4037416  19.4827584 -10.9267416  -9.6247416  13.7597584
 -11.2107416  -9.6027416  14.6727584 -10.5227416 -10.4857416  13.6537584
 -12.2037416  -3.3887416  22.9377584 -13.1357416  -3.5517416  23.0807584
 -12.1227416  -2.4347416  22.9427584 -16.4247416 -17.6877416  16.8977584
 -15.9827416 -17.4047416  17.6977584 -16.0297416 -17.1577416  16.2047584
  -4.9847416 -10.8947416  35.3337584  -5.7557416 -11.3577416  35.0057584
  -4.2477416 -11.3107416  34.8877584   4.3462584  -8.4787416  27.1497584
   4.6942584  -9.0647416  27.8217584   3.6642584  -8.9907416  26.7147584
 -16.3747416 -12.3247416  20.2877584 -17.1527416 -11.7697416  20.2307584
 -16.6137416 -13.1227416  19.8157584  -8.2427416 -10.2337416  23.1247584
  -7.4937416  -9.6437416  23.0357584  -7.9647416 -11.0407416  22.6907584
 -16.9117416  -2.2167416  21.1167584 -17.5747416  -1.9717416  21.7617584
 -17.3837416  -2.7527416  20.4797584 -12.2737416 -16.7287416  21.7047584
 -12.3597416 -16.0577416  21.0267584 -11.4267416 -16.5507416  22.1127584
 -14.8047416  -7.7647416  14.9067584 -14.1227416  -7.1507416  14.6357584
 -14.8807416  -7.6377416  15.8527584 -14.3007416   7.9842584  15.3397584
 -13.5467416   8.2502584  14.8127584 -14.1447416   8.3802584  16.1967584
 -18.7687416   5.6902584  20.5727584 -17.8337416   5.4822584  20.5747584
 -18.8067416   6.6212584  20.3547584  -4.9497416 -15.7687416  16.9397584
  -4.0327416 -15.9537416  16.7377584  -5.4387416 -16.1587416  16.2157584
   2.0142584 -14.1357416  19.2297584   2.1242584 -14.8347416  18.5847584
   2.6922584 -13.4977416  19.0097584 -13.1567416  -9.7237416  18.4957584
 -12.4027416  -9.2877416  18.8927584 -13.5287416 -10.2517416  19.2017584
  -4.9657416 -10.2327416  31.6927584  -5.2287416 -11.0687416  32.0767584
  -5.7827416  -9.7427416  31.5997584  -6.3997416 -17.9367416  29.6677584
  -5.6967416 -17.2867416  29.6647584  -6.6097416 -18.0587416  30.5937584
 -11.1617416 -13.4387416  34.2267584 -10.8867416 -14.0717416  34.8907584
 -10.8757416 -12.5927416  34.5707584  -4.4677416 -12.9297416  27.6357584
  -4.6117416 -12.1147416  28.1167584  -3.5517416 -13.1497416  27.8047584
 -14.9827416 -11.8607416  12.5217584 -14.1077416 -12.1707416  12.7537584
 -15.4367416 -11.7717416  13.3597584 -15.3397416 -12.0117416  37.1087584
 -15.7277416 -11.4147416  37.7487584 -14.9377416 -11.4377416  36.4577584
  -9.3187416 -13.2057416  28.4017584 -10.2347416 -13.0927416  28.6577584
  -9.0887416 -12.3857416  27.9647584 -17.4147416 -11.7287416  32.1637584
 -18.3187416 -11.4817416  32.3577584 -16.9247416 -10.9087416  32.2187584
  -7.1077416  -7.9197416  32.1287584  -7.8777416  -7.3537416  32.0727584
  -7.0617416  -8.1717416  33.0507584 -17.4307416 -15.7147416  15.1597584
 -16.8687416 -14.9727416  14.9367584 -17.6797416 -15.5617416  16.0717584
  -6.6077416  -8.7817416  34.9467584  -5.8547416  -9.1847416  35.3787584
  -7.2987416  -9.4427416  35.0027584  -2.4987416  -8.8837416  32.1397584
  -3.2407416  -8.8587416  32.7427584  -2.7727416  -8.3427416  31.3987584
 -14.9267416   4.4622584  34.3307584 -14.2777416   4.6642584  33.6567584
 -15.7337416   4.2952584  33.8437584  -4.3897416  -6.7947416  31.3457584
  -3.9667416  -6.3737416  32.0947584  -5.2817416  -6.9737416  31.6437584
  -7.8307416  -6.4007416  34.5747584  -7.1757416  -5.8467416  34.1497584
  -7.3197416  -7.0677416  35.0327584  -5.0837416 -12.5507416  25.1507584
  -4.5987416 -11.7257416  25.1527584  -5.0437416 -12.8547416  26.0577584
  -5.7477416 -17.2747416  14.3137584  -5.4837416 -18.1377416  14.6327584
  -6.4737416 -17.4527416  13.7147584 -10.6637416  -8.5157416  34.1007584
 -10.0107416  -8.4087416  33.4087584 -10.9787416  -7.6287416  34.2727584
 -13.5067416 -16.8167416  27.2987584 -14.3287416 -16.7997416  26.8087584
 -13.7757416 -16.8557416  28.2167584 -12.5217416 -11.6787416  23.2177584
 -11.9657416 -12.4507416  23.1097584 -12.6237416 -11.5877416  24.1657584
 -11.2867416 -10.9107416  35.2527584 -11.0317416 -10.0777416  34.8547584
 -12.0527416 -11.1907416  34.7517584   6.0242584 -14.2937416  12.9077584
   6.0632584 -14.5877416  13.8177584   6.7332584 -14.7687416  12.4727584
  -9.9747416 -15.4697416  36.4757584 -10.5847416 -14.7657416  36.6937584
 -10.5167416 -16.1337416  36.0497584  -0.7327416 -12.1787416  40.1037584
   0.1532584 -12.5387416  40.0507584  -1.3067416 -12.9337416  39.9787584
  -4.9697416 -15.7647416  28.9717584  -4.0667416 -15.9457416  28.7087584
  -5.0207416 -14.8097416  29.0147584  -6.9107416  -2.1587416  35.4857584
  -7.2187416  -2.7277416  36.1907584  -5.9567416  -2.1757416  35.5627584
 -10.4967416  -3.7277416  29.0947584 -11.2067416  -3.7787416  28.4547584
  -9.8467416  -3.1557416  28.6867584  -1.2297416 -11.4727416  24.1777584
  -2.0047416 -11.0507416  24.5487584  -1.1067416 -11.0467416  23.3297584
 -19.7637416  -8.6927416  36.2287584 -19.2717416  -8.8407416  35.4217584
 -20.0747416  -9.5617416  36.4837584  -8.1267416   7.6732584  37.3207584
  -7.4337416   8.2062584  36.9297584  -8.4687416   8.2112584  38.0347584
 -17.1327416   2.0542584  10.7017584 -16.7117416   2.3032584  11.5247584
 -16.4227416   1.6992584  10.1677584 -19.7787416  -3.2977416  12.0527584
 -19.6497416  -2.3497416  12.0817584 -18.9337416  -3.6467416  11.7717584
 -17.1427416 -13.3907416  28.8717584 -16.5437416 -13.6867416  29.5577584
 -17.6177416 -14.1797416  28.6117584 -16.8957416 -15.3017416  33.7957584
 -16.9427416 -16.2577416  33.7807584 -17.5487416 -15.0187416  33.1567584
 -19.2517416  -8.7837416  13.8947584 -20.0847416  -9.1517416  14.1917584
 -19.3447416  -7.8407416  14.0307584 -10.7267416 -19.2777416  36.2747584
 -10.9117416 -19.2237416  37.2117584 -11.1317416 -18.4937416  35.9037584
 -19.3337416 -11.9627416  37.7667584 -19.0977416 -12.8487416  37.4927584
 -18.7087416 -11.7507416  38.4597584  -2.6907416 -17.7287416  25.6467584
  -2.1987416 -17.0647416  25.1637584  -3.5427416 -17.7597416  25.2117584
 -13.6567416   8.1232584  33.1237584 -12.8717416   8.6682584  33.1737584
 -13.6387416   7.7562584  32.2397584 -12.5167416  -4.6437416  36.8557584
 -12.1937416  -5.1817416  36.1317584 -12.2717416  -3.7497416  36.6177584
 -17.1107416 -15.0047416  38.5847584 -16.5337416 -14.7817416  37.8547584
 -16.5767416 -14.8587416  39.3657584 -13.7837416 -11.4657416  34.0227584
 -14.4417416 -10.8727416  34.3857584 -14.2697416 -12.2617416  33.8067584
 -20.1707416 -12.3777416  23.2747584 -20.6817416 -11.7567416  23.7927584
 -20.8227416 -12.9587416  22.8847584 -12.6867416 -19.8027416  14.0317584
 -13.2367416 -19.7317416  13.2507584 -11.8327416 -19.4717416  13.7537584
  -7.2497416   3.9842584  36.9057584  -7.9847416   3.4312584  36.6417584
  -6.7167416   4.0682584  36.1147584 -15.6517416 -14.4257416  36.1607584
 -16.1327416 -14.5397416  35.3417584 -15.5327416 -13.4797416  36.2397584
  -8.4957416 -10.7457416  35.6197584  -9.3337416 -10.8797416  35.1777584
  -8.1967416 -11.6277416  35.8397584   1.9612584 -15.4957416  27.7657584
   1.0222584 -15.5357416  27.5837584   2.3752584 -15.8247416  26.9677584
 -17.6497416 -10.0967416  25.7377584 -18.4137416 -10.5167416  26.1317584
 -16.8997416 -10.5427416  26.1327584 -11.3837416 -20.1517416  32.9837584
 -11.0087416 -20.2707416  33.8567584 -10.6337416 -19.9457416  32.4257584
 -18.4327416 -19.5307416  33.2117584 -17.7617416 -18.9787416  33.6147584
 -19.0527416 -18.9117416  32.8277584 -15.0047416  -5.0217416  17.6837584
 -15.1917416  -5.9517416  17.8087584 -14.9737416  -4.6607416  18.5697584
 -13.2607416  -6.7207416  38.6107584 -12.8377416  -5.9557416  38.2197584
 -13.7467416  -6.3707416  39.3577584 -21.0317416 -20.9397416  39.5557584
 -20.2317416 -20.4937416  39.8337584 -21.6987416 -20.2527416  39.5477584
 -10.0757416  -9.3517416  29.5777584 -10.5777416 -10.1417416  29.3807584
 -10.1547416  -8.8147416  28.7887584 -19.7677416   6.3902584  39.1897584
 -19.5407416   6.1962584  38.2797584 -19.9017416   7.3372584  39.2067584
 -13.9837416  -2.2867416  39.4927584 -13.7467416  -2.8007416  40.2647584
 -14.5787416  -1.6147416  39.8247584 -11.9947416 -17.0557416  35.3257584
 -12.8937416 -16.9927416  35.6487584 -12.0847416 -17.1017416  34.3737584
 -14.6477416 -10.1577416  40.1367584 -13.6997416 -10.0277416  40.1447584
 -14.8167416 -10.7437416  40.8747584 -15.3957416 -13.3187416  33.1587584
 -15.8027416 -14.1767416  33.2767584 -15.9087416 -12.9027416  32.4657584
 -16.8477416 -19.0797416  40.2717584 -17.4037416 -19.1517416  41.0467584
 -17.3317416 -19.5377416  39.5847584   6.1272584 -21.6607416  37.9877584
   6.4972584 -20.9167416  38.4627584   6.6522584 -21.7217416  37.1897584
  -3.9797416 -18.0347416  32.9697584  -3.9477416 -18.9487416  33.2537584
  -3.4697416 -18.0177416  32.1597584  -8.1487416 -19.9217416  34.9477584
  -7.5077416 -20.0147416  35.6527584  -8.9157416 -19.5357416  35.3707584
 -13.5867416 -10.7337416  31.4207584 -14.5107416 -10.5767416  31.2267584
 -13.5787416 -11.0217416  32.3337584 -15.5957416 -13.5597416  16.0057584
 -16.1647416 -12.8077416  16.1707584 -14.8377416 -13.4167416  16.5717584
   7.3092584 -13.4007416  22.0417584   7.3862584 -14.3147416  21.7667584
   6.4872584 -13.1017416  21.6537584 -17.9117416  -2.7127416  17.1107584
 -17.5147416  -1.8677416  17.3237584 -17.3977416  -3.0397416  16.3727584
 -21.9287416   7.5672584  11.8367584 -21.6287416   8.0792584  11.0857584
 -21.7687416   6.6572584  11.5867584 -15.8977416 -16.9957416  26.0907584
 -16.3797416 -16.4437416  25.4757584 -16.5247416 -17.1807416  26.7897584
  -7.5557416 -13.2867416  35.9527584  -8.2697416 -13.9197416  36.0237584
  -7.0847416 -13.3617416  36.7827584  -7.3637416 -21.4047416  23.8487584
  -6.6987416 -22.0547416  24.0777584  -7.2187416 -20.6857416  24.4627584
 -17.6917416 -17.5597416  37.4927584 -18.6197416 -17.4247416  37.3017584
 -17.4577416 -16.8357416  38.0727584 -18.2387416  -8.8047416  33.9647584
 -18.2797416  -7.8587416  34.1067584 -17.9227416  -8.8977416  33.0657584
  -1.2647416 -19.2867416  34.9257584  -1.6117416 -19.4497416  34.0487584
  -1.3637416 -20.1217416  35.3827584  -7.4907416  -9.5107416  26.9537584
  -7.8717416  -8.7527416  27.3977584  -6.6337416  -9.6237416  27.3647584
  -0.5137416  -3.7547416  34.4277584  -0.6237416  -4.5397416  34.9647584
  -0.0907416  -3.1237416  35.0087584 -13.0907416  -4.3017416  11.2637584
 -12.3257416  -4.6767416  10.8277584 -12.7287416  -3.8047416  11.9977584
 -13.1637416   6.2612584  35.5917584 -13.3497416   6.0112584  34.6867584
 -12.4167416   6.8562584  35.5277584 -15.5957416  -9.7507416  35.0137584
 -16.4367416  -9.4297416  34.6857584 -15.2467416  -9.0247416  35.5297584
 -22.6397416 -12.7577416  30.9907584 -22.9237416 -13.5607416  31.4267584
 -22.8257416 -12.0627416  31.6217584 -11.4417416 -11.6357416  29.3747584
 -12.0557416 -12.2937416  29.0497584 -11.5937416 -11.6107416  30.3197584
 -12.0297416 -11.5987416  25.9747584 -11.0967416 -11.4057416  25.8807584
 -12.0597416 -12.3767416  26.5307584 -19.2497416 -14.3747416  36.6637584
 -18.4497416 -14.8937416  36.7477584 -19.3957416 -14.3107416  35.7197584
 -21.8157416  -7.3857416  40.2587584 -21.2677416  -6.6217416  40.0767584
 -21.8577416  -7.4287416  41.2137584 -11.4607416  -8.3717416  39.5037584
 -12.1007416  -7.8247416  39.0487584 -10.9027416  -8.7187416  38.8077584
   5.6262584 -20.2487416  28.3917584   5.5692584 -21.1727416  28.6357584
   5.5722584 -19.7777416  29.2237584  -5.8437416  -4.9517416  33.2497584
  -5.9997416  -4.0287416  33.4507584  -4.9437416  -4.9777416  32.9257584
  -6.9727416 -18.2547416  12.1127584  -6.4137416 -19.0307416  12.0747584
  -7.3177416 -18.1637416  11.2247584 -21.9317416 -18.1477416  34.5797584
 -22.2507416 -19.0247416  34.3687584 -21.1687416 -18.0267416  34.0137584
  -8.9137416  -1.8457416  27.8697584  -8.9867416  -1.0407416  27.3567584
  -8.1017416  -2.2517416  27.5647584 -12.2877416 -14.3877416  26.5467584
 -12.2627416 -15.2417416  26.9787584 -12.6657416 -14.5657416  25.6857584
  -7.2487416 -17.3767416  36.7347584  -7.9437416 -16.7187416  36.7457584
  -7.0157416 -17.4647416  35.8107584 -13.4287416 -13.4817416  38.8767584
 -14.0047416 -13.3887416  38.1177584 -12.6197416 -13.0397416  38.6197584
 -14.8597416 -14.4687416  30.3557584 -14.8827416 -15.4247416  30.3287584
 -14.0197416 -14.2597416  30.7657584  -4.3777416   7.8302584  38.9487584
  -4.8637416   7.0122584  38.8457584  -4.0767416   7.8182584  39.8577584
 -21.6847416 -15.5117416  20.2607584 -22.1577416 -15.2447416  19.4727584
 -20.8857416 -14.9847416  20.2517584 -11.6547416   1.3412584  31.4027584
 -11.6217416   0.3932584  31.5257584 -12.2857416   1.4692584  30.6937584
 -20.1317416  -2.7827416  21.5957584 -19.6227416  -2.2357416  22.1937584
 -19.7517416  -2.6127416  20.7337584 -20.6387416 -16.8887416  22.7097584
 -21.1147416 -16.5477416  21.9527584 -20.9627416 -16.3747416  23.4487584
 -11.0787416  -1.1777416  31.8907584 -11.1857416  -2.0507416  31.5137584
 -10.4647416  -1.3027416  32.6157584  -8.9467416 -14.8267416  13.0897584
  -9.7387416 -14.3637416  12.8137584  -9.2557416 -15.4717416  13.7257584
 -17.8067416   7.9542584  28.8637584 -17.6727416   8.1032584  29.7997584
 -18.1917416   8.7702584  28.5437584  -9.7157416 -16.4397416  15.2837584
  -9.1237416 -16.4487416  16.0357584 -10.4087416 -17.0577416  15.5167584
 -19.4797416   3.0392584  29.9877584 -18.6007416   2.6632584  29.9427584
 -19.3897416   3.9072584  29.5947584 -22.7687416  -0.0877416  15.3187584
 -21.8757416  -0.4107416  15.2027584 -23.3167416  -0.7287416  14.8647584
 -18.1287416   0.9242584  27.2047584 -17.5297416   1.6702584  27.2357584
 -17.5957416   0.1782584  27.4807584 -17.0087416  -0.1687416  17.3847584
 -16.3527416   0.2142584  17.9667584 -17.8247416  -0.1307416  17.8837584
   7.2022584   0.3762584  40.4757584   6.5072584   0.4542584  41.1297584
   7.1372584  -0.5247416  40.1617584 -20.4967416  -2.7787416  16.1437584
 -21.1437416  -2.9397416  16.8317584 -19.6517416  -2.9137416  16.5727584
 -16.3107416  -2.6617416  12.9997584 -16.9027416  -2.0467416  12.5667584
 -16.8097416  -3.4767416  13.0547584 -16.9547416   5.8222584  40.5587584
 -17.5507416   5.9852584  39.8267584 -17.4447416   5.2432584  41.1427584
  -6.3697416  -2.4987416  31.8627584  -6.3027416  -3.2097416  31.2257584
  -7.1127416  -1.9757416  31.5617584 -13.6397416 -16.1277416  16.3677584
 -13.9557416 -15.8947416  15.4947584 -13.3877416 -17.0477416  16.2947584
 -18.5337416  -1.4187416  23.1887584 -18.9627416  -0.6097416  23.4657584
 -17.7727416  -1.4957416  23.7647584 -19.5597416  -6.0817416  13.8297584
 -19.1707416  -5.4237416  13.2537584 -19.0067416  -6.0737416  14.6107584
 -18.6277416  -3.7847416  19.5487584 -18.5757416  -3.4037416  18.6727584
 -19.2147416  -4.5337416  19.4507584 -12.6427416  -7.2297416  28.5527584
 -13.1007416  -8.0667416  28.4727584 -11.8697416  -7.3247416  27.9967584
 -16.1017416   3.3012584  17.6437584 -15.4927416   2.8182584  17.0857584
 -16.7547416   3.6532584  17.0387584 -22.0257416  -3.7877416  13.6897584
 -21.4317416  -3.7327416  14.4387584 -21.5007416  -3.4967416  12.9447584
  -9.9507416 -19.5137416  20.2277584  -9.1727416 -20.0097416  20.4837584
 -10.1677416 -18.9917416  20.9997584 -15.1287416  -5.9287416  28.8467584
 -15.4257416  -5.9597416  29.7557584 -14.3517416  -6.4877416  28.8277584
 -18.4417416   0.9962584  21.5247584 -18.9807416   1.4462584  22.1757584
 -17.7507416   1.6232584  21.3107584 -19.4987416   0.7832584  24.7937584
 -19.1617416   1.5392584  24.3127584 -18.9887416   0.7662584  25.6037584
  -2.7207416 -18.5337416  12.0377584  -2.3737416 -19.2177416  11.4647584
  -3.5817416 -18.8577416  12.3027584   5.3702584 -19.1437416  30.7707584
   4.5682584 -19.3567416  31.2487584   5.6222584 -18.2797416  31.0957584
 -21.8147416 -21.5707416  36.3567584 -21.0297416 -21.4997416  35.8137584
 -21.5647416 -21.1767416  37.1927584 -22.0247416  -4.8787416  26.5367584
 -22.6287416  -5.3127416  27.1397584 -22.4997416  -4.1037416  26.2377584
 -12.3737416 -20.1217416  26.3417584 -12.2077416 -20.0937416  27.2847584
 -12.0987416 -19.2617416  26.0247584 -11.4977416  -2.3457416  35.9597584
 -10.7667416  -2.2347416  35.3517584 -11.3267416  -1.7137416  36.6577584
 -19.4757416  -2.1927416  28.8207584 -20.3647416  -1.9997416  29.1197584
 -18.9117416  -1.8887416  29.5307584   3.5312584 -13.0447416  25.3267584
   3.1252584 -12.1777416  25.3467584   2.7932584 -13.6547416  25.3197584
 -19.7007416   0.3802584  18.7997584 -19.3877416   1.1372584  19.2957584
 -20.6547416   0.4572584  18.8207584 -15.7447416  -0.1157416  19.8967584
 -15.5437416   0.6462584  20.4407584 -16.2577416  -0.6887416  20.4667584
 -10.3227416   4.4542584  39.8537584 -10.6477416   4.4102584  40.7527584
 -11.1057416   4.5962584  39.3217584 -11.5367416   4.5292584  27.1457584
 -10.9127416   4.4592584  26.4237584 -11.5367416   3.6602584  27.5487584
 -11.9407416  -3.0937416  13.3837584 -12.1347416  -2.1617416  13.4887584
 -11.2447416  -3.2667416  14.0187584  -9.1627416 -21.1227416  12.4667584
  -9.9437416 -21.3457416  11.9607584  -9.1577416 -20.1657416  12.4927584
 -19.6327416 -20.9827416  15.1937584 -18.6777416 -20.9157416  15.1877584
 -19.9287416 -20.1577416  15.5777584 -13.0007416  -5.6897416  32.4137584
 -13.9107416  -5.4147416  32.5217584 -13.0577416  -6.5987416  32.1197584
 -14.8127416  -0.2437416  25.2797584 -13.9147416  -0.2337416  25.6107584
 -14.8287416   0.4362584  24.6067584 -14.5657416  -1.8407416  35.8827584
 -14.7587416  -2.3807416  36.6497584 -13.6107416  -1.8417416  35.8227584
  -9.8557416 -20.2607416  23.1547584  -9.2327416 -20.9607416  23.3517584
 -10.6997416 -20.6017416  23.4497584 -14.8407416   1.6352584  35.2197584
 -14.1757416   1.1352584  34.7467584 -14.8517416   2.4892584  34.7857584
 -15.6067416 -19.3807416  30.4167584 -15.0547416 -20.1467416  30.2597584
 -16.3577416 -19.7217416  30.9037584  -6.1407416  -9.2827416  11.8167584
  -6.6627416  -8.5277416  11.5437584  -6.5747416  -9.6007416  12.6087584
 -11.3627416  -5.7017416  34.5637584 -10.7187416  -5.1767416  34.0877584
 -12.0207416  -5.9277416  33.9067584 -16.0377416   6.9072584  24.8527584
 -15.4467416   7.6402584  25.0267584 -16.8427416   7.1322584  25.3187584
 -13.0367416   1.0352584  37.2997584 -13.5237416   1.0732584  36.4757584
 -13.0737416   1.9282584  37.6417584   4.5462584 -21.2557416  23.4527584
   4.7032584 -21.8927416  24.1497584   5.1302584 -20.5257416  23.6587584
 -21.3527416   8.1452584  26.5127584 -21.3737416   9.0962584  26.6237584
 -20.5217416   7.9742584  26.0697584 -15.9737416  -1.0237416  28.5097584
 -15.3557416  -1.7207416  28.2907584 -16.5317416  -1.4017416  29.1897584
 -14.4487416 -17.3877416  12.4797584 -14.3577416 -16.7447416  13.1827584
 -15.2697416 -17.8417416  12.6737584 -16.6737416   1.9402584  30.7197584
 -16.4797416   1.7232584  29.8077584 -15.8467416   2.2762584  31.0677584
  -5.4187416   0.7982584  38.0457584  -5.1677416   1.3072584  38.8167584
  -4.6857416   0.9052584  37.4387584 -21.1257416   6.8842584  18.2017584
 -20.4567416   6.3752584  17.7457584 -21.9107416   6.3382584  18.1637584
 -19.4527416   3.1432584  19.6857584 -19.0507416   3.9792584  19.9207584
 -20.2887416   3.3832584  19.2847584 -21.3937416   5.1892584  11.0157584
 -20.6177416   5.5022584  10.5507584 -21.5717416   4.3302584  10.6337584
 -21.2947416  -2.5057416  24.2257584 -21.9847416  -2.1207416  23.6857584
 -20.8017416  -3.0627416  23.6227584 -18.8617416   5.3012584  28.7657584
 -19.0437416   5.2542584  27.8277584 -18.3537416   6.1062584  28.8707584
  -9.5267416   0.4862584  26.2317584 -10.4787416   0.3932584  26.2567584
  -9.2867416   0.2602584  25.3337584 -19.3657416 -15.3847416  12.5247584
 -18.8037416 -14.7177416  12.1297584 -18.8307416 -15.7667416  13.2207584
 -15.6117416   0.9092584  38.7327584 -16.1987416   0.7992584  37.9847584
 -14.7327416   0.8342584  38.3597584 -22.6697416 -18.0067416  16.4567584
 -22.8147416 -18.9207416  16.2147584 -22.7337416 -17.9987416  17.4117584
  -7.4667416  -0.7127416  38.7537584  -8.0987416  -0.0367416  38.5117584
  -6.6267416  -0.3817416  38.4337584  -2.9027416 -21.2747416  36.9347584
  -3.4997416 -21.5127416  37.6437584  -2.5107416 -20.4487416  37.2177584
 -14.1107416 -16.6297416  36.8387584 -14.2407416 -16.7307416  37.7817584
 -14.8397416 -16.0787416  36.5527584 -17.7517416 -20.5657416  38.2367584
 -17.5697416 -19.7567416  37.7597584 -17.8827416 -21.2227416  37.5527584
 -10.1907416   0.4832584  35.1467584 -10.0937416   0.2042584  36.0577584
  -9.6667416  -0.1427416  34.6467584 -18.0587416   4.8642584  12.7007584
 -17.9757416   4.1432584  13.3247584 -18.8787416   5.2952584  12.9387584
 -15.8117416  -5.5707416  31.3537584 -16.3857416  -5.8287416  32.0757584
 -15.8127416  -4.6137416  31.3777584  -9.2687416  -4.5687416  32.9657584
  -8.7057416  -5.1787416  33.4427584  -9.3777416  -4.9677416  32.1027584
  -9.3237416  -2.0857416  34.1437584  -9.2047416  -2.8947416  33.6457584
  -8.6107416  -2.0887416  34.7817584 -17.2887416  -0.7017416  11.2537584
 -18.1937416  -0.6627416  10.9437584 -16.9377416   0.1712584  11.0797584
 -18.8867416   2.1672584  38.5237584 -19.0317416   1.2312584  38.3837584
 -18.1997416   2.2072584  39.1887584   0.5342584   3.8022584  36.8887584
   1.0672584   4.2192584  36.2107584  -0.1627416   4.4332584  37.0667584
  -1.7067416   5.6312584  36.8977584  -2.0547416   5.7732584  36.0177584
  -1.4567416   6.5042584  37.2007584 -11.1487416   7.9222584  35.7427584
 -11.2867416   8.7102584  36.2687584 -10.2127416   7.7392584  35.8257584
 -17.1797416   3.9662584  32.6867584 -16.6717416   4.3612584  31.9777584
 -17.5397416   3.1652584  32.3067584 -19.2367416  -0.5927416  38.5507584
 -20.1107416  -0.7057416  38.1777584 -18.6427416  -0.9047416  37.8697584
   1.7142584  -4.5647416  33.0087584   2.3142584  -5.2587416  33.2817584
   0.8862584  -4.7787416  33.4377584 -11.1087416  -1.4867416  40.3927584
 -11.9967416  -1.6667416  40.0837584 -10.7977416  -2.3247416  40.7327584
 -12.1697416  -0.4907416  26.3677584 -11.7557416  -1.2397416  26.7957584
 -11.9177416  -0.5697416  25.4477584 -15.0057416  -3.9587416  37.5857584
 -14.8557416  -3.4727416  38.3967584 -14.1357416  -4.2527416  37.3167584
  -8.1127416   6.0352584  40.0737584  -9.0107416   5.7952584  40.3007584
  -8.2037416   6.6272584  39.3267584 -14.7947416   4.0472584  39.7287584
 -15.4597416   4.4322584  40.2997584 -15.2377416   3.9302584  38.8887584
 -22.9087416   4.1262584  33.5747584 -23.0217416   3.3302584  34.0937584
 -21.9687416   4.1662584  33.3977584   3.9642584 -17.9007416  33.3467584
   3.9662584 -18.7287416  33.8267584   4.5482584 -17.3317416  33.8467584
 -17.3207416  -4.5377416  36.0787584 -17.4297416  -5.4447416  36.3667584
 -16.4627416  -4.2807416  36.4167584 -12.8877416 -18.0117416  32.4437584
 -13.6917416 -18.1047416  32.9547584 -12.2977416 -18.6757416  32.7997584
 -11.4687416   7.3862584  38.5177584 -12.4187416   7.3802584  38.3997584
 -11.1157416   7.2312584  37.6417584 -14.3227416  -8.9087416  23.3947584
 -14.0487416  -8.3547416  22.6647584 -13.5577416  -9.4527416  23.5837584
 -17.9377416   0.4402584  15.1127584 -17.3227416   0.7712584  14.4577584
 -17.4187416   0.3692584  15.9147584 -21.6227416   2.3022584  12.9017584
 -21.1027416   1.8062584  12.2697584 -21.1847416   2.1562584  13.7397584
 -21.5307416  -0.6447416  32.9457584 -21.2807416  -1.3127416  32.3077584
 -20.8447416   0.0192584  32.8797584 -15.3937416   4.6362584  30.6767584
 -15.3817416   5.0832584  29.8307584 -14.5647416   4.8812584  31.0887584
 -11.9617416 -19.3747416  38.7487584 -12.8417416 -19.5737416  38.4287584
 -12.0857416 -19.1557416  39.6717584 -10.6457416  -0.4717416  37.7917584
 -11.4527416   0.0232584  37.6477584 -10.3677416  -0.2257416  38.6737584
 -20.8967416   4.4772584  37.0577584 -21.7767416   4.8152584  36.8957584
 -20.9967416   3.9012584  37.8157584 -15.9017416   8.0932584  35.0217584
 -15.4017416   7.5592584  35.6387584 -15.2697416   8.3342584  34.3447584
  -6.9277416 -19.4617416  32.3187584  -7.2917416 -19.6097416  33.1917584
  -6.0237416 -19.7697416  32.3807584 -13.9117416   0.1052584  30.4767584
 -14.5757416   0.0252584  29.7917584 -13.8207416  -0.7807416  30.8277584
  -8.2717416 -18.2087416  39.3567584  -8.6347416 -19.0777416  39.1807584
  -7.7527416 -18.0047416  38.5787584  -5.7047416  -5.8407416  36.5267584
  -5.0317416  -5.1607416  36.4847584  -6.5127416  -5.3667416  36.7217584
  -9.7417416 -20.0117416  30.6197584  -8.8417416 -19.9617416  30.9427584
  -9.8667416 -20.9347416  30.3997584 -14.5537416 -20.2987416  38.7627584
 -15.2107416 -20.1577416  39.4447584 -14.6177416 -21.2327416  38.5587584
 -12.6707416   0.4482584  33.7857584 -12.5107416   0.9332584  32.9757584
 -11.8107416   0.3832584  34.2007584  -4.3197416 -13.5377416  12.2267584
  -3.6067416 -13.1837416  12.7577584  -4.7557416 -12.7657416  11.8647584
  -7.6747416  -4.3047416  37.0157584  -7.5657416  -3.8737416  37.8637584
  -8.2617416  -5.0387416  37.1937584 -15.5277416   4.8452584  36.9147584
 -16.4527416   4.7192584  36.7017584 -15.0867416   4.8602584  36.0657584
 -15.6667416   5.9812584  28.3037584 -15.9777416   5.7102584  27.4397584
 -16.2657416   6.6802584  28.5657584   2.2872584 -18.5527416  36.0237584
   1.9532584 -18.8717416  35.1857584   2.8302584 -19.2687416  36.3537584
 -13.7207416 -20.3897416  11.7947584 -14.4047416 -21.0597416  11.7707584
 -14.1337416 -19.6117416  11.4217584 -14.3837416   7.0212584  38.4167584
 -14.7097416   6.4372584  37.7317584 -14.7857416   6.6942584  39.2217584
  -9.6847416  -6.3307416  36.9787584  -9.8067416  -7.2797416  36.9557584
  -9.6037416  -6.0777416  36.0587584 -17.3047416 -21.3897416  31.5167584
 -17.6547416 -20.7627416  32.1497584 -17.4427416 -22.2447416  31.9257584
  -8.1357416 -13.7697416  15.9747584  -7.4437416 -13.8907416  15.3247584
  -8.4067416 -14.6587416  16.2037584 -10.5637416 -15.2197416  18.4967584
  -9.7427416 -15.6467416  18.2537584 -11.2297416 -15.6637416  17.9717584
 -12.0327416 -15.3547416  40.5857584 -11.6857416 -14.6767416  41.1647584
 -12.6527416 -14.8937416  40.0197584  -3.4297416 -14.0197416  23.4117584
  -3.2427416 -13.5867416  22.5787584  -3.8267416 -13.3377416  23.9537584
   7.1322584  -8.6327416  30.7767584   6.4342584  -8.0167416  30.5527584
   6.7422584  -9.4957416  30.6377584   0.6302584 -13.4657416  25.2197584
   0.2562584 -13.0977416  24.4187584   0.2642584 -14.3487416  25.2717584
   4.6722584 -17.5717416  21.2727584   4.5302584 -17.2717416  20.3757584
   4.9072584 -18.4957416  21.1837584   1.0352584 -13.6547416  21.7527584
   0.4582584 -13.0807416  21.2497584   1.6962584 -13.9417416  21.1227584
   1.3332584 -20.2157416  21.5617584   0.4172584 -20.0967416  21.8117584
   1.3032584 -20.8237416  20.8237584   0.0182584   0.2802584  40.5217584
   0.3032584  -0.4047416  41.1277584   0.5912584   0.1802584  39.7617584
 -22.7457416 -14.8377416  28.2027584 -22.0277416 -14.2337416  28.3917584
 -23.0887416 -14.5447416  27.3587584  -4.1837416 -16.6757416  23.1277584
  -3.6137416 -17.0827416  22.4747584  -3.8097416 -15.8047416  23.2637584
   4.9542584 -18.7807416  14.5687584   5.4092584 -19.5477416  14.2207584
   4.2342584 -18.6307416  13.9567584  -6.9367416 -14.5487416  11.2797584
  -7.6037416 -14.7137416  11.9467584  -6.3497416 -13.9087416  11.6807584
  -3.2727416  -4.3257416  37.2657584  -2.5147416  -4.6927416  36.8107584
  -3.2687416  -4.7537416  38.1217584   3.1332584 -16.1297416  25.3877584
   3.3522584 -15.7267416  24.5477584   2.9562584 -17.0457416  25.1757584
   2.6442584 -14.5957416  16.1187584   2.0792584 -15.3587416  15.9977584
   2.9572584 -14.3867416  15.2377584 -22.3437416   1.3252584  23.8777584
 -22.5937416   0.4172584  23.7077584 -21.4467416   1.2702584  24.2067584
  -8.0087416 -10.3067416  31.1147584  -8.6857416  -9.8337416  30.6307584
  -7.4287416  -9.6207416  31.4477584  -6.0987416 -14.5597416  14.5057584
  -5.6097416 -14.0507416  13.8587584  -6.0217416 -15.4657416  14.2057584
 -17.1907416 -17.6497416  28.5817584 -16.6767416 -18.1507416  29.2137584
 -17.6967416 -18.3097416  28.1067584   2.4902584 -15.9487416  30.3587584
   3.3652584 -16.2837416  30.1627584   2.1152584 -15.7417416  29.5027584
 -12.2987416 -14.4307416  31.5337584 -11.4587416 -14.7727416  31.2257584
 -12.1777416 -14.3107416  32.4757584 -17.3757416 -12.6407416  23.9657584
 -18.2617416 -12.7217416  24.3177584 -17.3997416 -11.8427416  23.4367584
   6.7262584 -20.8657416  13.9957584   7.3892584 -20.8027416  13.3087584
   6.3362584 -21.7317416  13.8737584  -3.6857416 -10.2447416  24.4557584
  -4.0757416 -10.1667416  23.5847584  -4.0437416  -9.5057416  24.9467584
   0.6442584  -4.9517416  28.5397584   0.2032584  -4.3197416  27.9717584
   0.0362584  -5.0857416  29.2667584 -21.5637416   3.8162584  21.7087584
 -20.9227416   3.2332584  21.3017584 -22.3657416   3.2962584  21.7567584
 -22.2477416 -18.1287416  12.7257584 -21.9027416 -17.6237416  11.9897584
 -23.1867416 -18.1957416  12.5517584  -4.7897416 -14.5587416  37.8387584
  -5.4807416 -15.0047416  38.3277584  -4.7067416 -15.0607416  37.0277584
   2.7542584 -10.4337416  26.0947584   2.3122584 -10.9687416  26.7537584
   2.0522584  -9.9237416  25.6897584 -21.1107416  -7.0027416  16.2737584
 -21.7327416  -7.0527416  15.5467584 -21.0447416  -7.9017416  16.5947584
   3.9362584 -17.9517416  28.4817584   3.6592584 -17.4827416  27.6947584
   3.2402584 -18.5887416  28.6397584  -2.9107416 -13.7827416  39.8537584
  -3.3507416 -14.0477416  39.0457584  -3.5327416 -13.9967416  40.5477584
  -1.5397416 -20.8097416  19.2027584  -1.4067416 -20.4657416  20.0857584
  -2.2147416 -21.4807416  19.3067584   1.3772584 -17.1357416  39.8947584
   1.1132584 -16.5437416  39.1907584   0.6282584 -17.1477416  40.4917584
   4.2142584 -20.9507416  33.9757584   3.3052584 -21.1927416  33.7967584
   4.6522584 -21.7817416  34.1597584   0.5562584 -16.5207416  22.4347584
   0.9582584 -15.6847416  22.1967584   1.2972584 -17.1007416  22.6127584
   2.1692584 -20.5367416  30.7327584   1.8662584 -20.1687416  29.9027584
   1.6692584 -20.0677416  31.4007584   3.5152584 -14.0727416  34.5617584
   3.4952584 -14.8127416  35.1677584   4.2982584 -13.5807416  34.8097584
 -22.6327416  -9.7327416  22.2257584 -22.3657416  -9.9607416  23.1157584
 -21.9067416  -9.2127416  21.8827584  -6.1527416 -11.9967416  17.7197584
  -6.5207416 -12.4637416  16.9687584  -5.2487416 -12.3047416  17.7747584
 -18.0137416   4.2472584  15.8677584 -18.4537416   5.0712584  16.0797584
 -18.7267416   3.6292584  15.7077584 -22.7757416 -15.2307416  17.9087584
 -23.3537416 -15.6717416  17.2847584 -22.0977416 -14.8287416  17.3647584
 -17.3957416 -19.9267416  24.7207584 -16.4537416 -20.0197416  24.5737584
 -17.6867416 -19.3207416  24.0397584  -1.8277416 -10.2147416  38.7237584
  -1.3217416 -10.8267416  39.2577584  -1.3347416 -10.1457416  37.9057584
 -10.7657416 -17.7767416  10.9287584 -11.3577416 -17.0537416  10.7217584
 -10.0907416 -17.7357416  10.2507584   1.6532584 -19.4787416  28.1857584
   1.8912584 -19.3817416  27.2637584   1.1132584 -20.2687416  28.2127584
 -14.2567416 -17.1667416  30.0477584 -13.6497416 -17.4697416  30.7237584
 -14.9917416 -17.7787416  30.0947584   4.8672584 -14.3357416  39.1127584
   5.3862584 -13.5617416  38.8927584   4.7072584 -14.7657416  38.2727584
  -1.5727416 -19.8357416  21.6697584  -1.7497416 -19.8177416  22.6097584
  -1.7087416 -18.9327416  21.3827584  -0.6897416 -15.3417416  27.0807584
  -1.2307416 -14.7477416  27.6007584  -1.1257416 -15.3817416  26.2297584
  -5.7607416 -11.7887416  40.7147584  -5.8737416 -10.8517416  40.8697584
  -5.4467416 -11.8467416  39.8117584   5.1882584 -20.0217416  19.9157584
   4.8622584 -20.7917416  20.3807584   4.7792584 -20.0717416  19.0517584
 -18.6217416  -2.3047416  26.1817584 -19.5317416  -2.1067416  25.9607584
 -18.5697416  -2.1727416  27.1277584  -1.2347416  -5.4777416  30.0807584
  -1.5477416  -5.0107416  30.8547584  -0.7787416  -6.2437416  30.4297584
   1.7822584  -8.7617416  28.6787584   2.5242584  -9.2737416  28.3557584
   2.1822584  -8.0467416  29.1747584 -20.1107416 -17.4757416  32.4907584
 -20.5007416 -17.9787416  31.7757584 -19.8067416 -16.6677416  32.0757584
   7.2252584 -12.2097416  17.9667584   6.2892584 -12.3117416  18.1387584
   7.3652584 -12.6547416  17.1317584 -10.6667416 -14.1097416  22.8417584
  -9.7267416 -14.1347416  22.6627584 -10.8397416 -14.9157416  23.3277584
   5.1872584 -12.6307416  29.3327584   6.0782584 -12.7787416  29.6517584
   4.6352584 -13.1577416  29.9107584   3.1282584  -0.4667416  39.5557584
   2.6232584  -0.5477416  38.7477584   3.6302584   0.3412584  39.4457584
 -20.1697416 -12.6387416  19.2537584 -19.7467416 -12.4367416  20.0887584
 -21.0357416 -12.2377416  19.3207584 -20.8397416 -13.3137416  29.0467584
 -19.9887416 -12.9097416  29.2147584 -21.3977416 -13.0037416  29.7597584
   4.6972584 -15.6077416  23.2957584   4.8282584 -16.4327416  22.8277584
   4.6262584 -14.9487416  22.6047584 -16.7407416 -18.0607416  13.9547584
 -17.0937416 -17.1967416  14.1687584 -17.4307416 -18.4797416  13.4397584
  -2.6437416 -18.3167416  17.7937584  -2.0177416 -18.8827416  18.2467584
  -3.3777416 -18.2357416  18.4017584 -16.9197416 -11.2847416  15.9837584
 -17.1707416 -10.7287416  16.7217584 -16.9337416 -10.6997416  15.2267584
  -0.6417416 -13.7977416  19.2547584   0.2722584 -14.0817416  19.2227584
  -0.6787416 -13.0417416  18.6687584   4.3042584 -13.6427416  21.3787584
   3.8632584 -12.9057416  21.8017584   4.4792584 -13.3377416  20.4877584
   1.6242584 -13.3327416  10.7857584   2.1932584 -12.7327416  10.3037584
   2.1432584 -13.5967416  11.5457584  -2.3607416 -15.8407416  16.5707584
  -2.1167416 -16.6267416  17.0587584  -1.5257416 -15.4657416  16.2877584
 -18.7077416  -4.3317416  31.5237584 -19.2487416  -3.9357416  30.8407584
 -18.0217416  -3.6847416  31.6917584 -21.5517416 -14.7547416  24.7827584
 -22.4397416 -14.8277416  25.1297584 -21.2587416 -13.8847416  25.0527584
 -21.6027416  -3.2337416  18.7787584 -21.0197416  -3.1057416  19.5277584
 -22.3927416  -3.6237416  19.1527584 -11.9557416  -3.5227416  31.1837584
 -11.2897416  -3.6887416  30.5167584 -12.1137416  -4.3777416  31.5837584
   1.9812584 -19.4507416  16.5187584   1.3772584 -20.1937416  16.5317584
   2.8512584 -19.8497416  16.5237584  -3.3887416  -6.3977416  26.7127584
  -2.5737416  -6.8927416  26.6257584  -3.1067416  -5.5117416  26.9407584
 -17.6377416  -7.0467416  26.9977584 -16.9657416  -7.1287416  27.6737584
 -18.3867416  -6.6577416  27.4487584   0.0402584  -7.1817416  39.9057584
   0.2662584  -6.2717416  40.1007584  -0.4667416  -7.1337416  39.0957584
   1.6982584 -17.7797416  18.9567584   1.8592584 -18.4397416  18.2827584
   2.5622584 -17.6027416  19.3307584  -1.3857416 -15.6067416  24.3457584
  -2.0617416 -15.1117416  23.8827584  -0.7677416 -15.8657416  23.6617584
 -18.4007416 -10.6957416  11.6677584 -19.1067416 -10.1227416  11.9667584
 -17.6827416 -10.5317416  12.2797584   4.4312584 -16.5957416  18.6807584
   4.5842584 -15.6747416  18.8937584   4.7542584 -16.6907416  17.7847584
   1.3322584 -12.5947416  34.9957584   0.6562584 -13.1357416  34.5887584
   2.1142584 -13.1467416  34.9957584   0.0422584  -7.9937416  30.5797584
   0.7542584  -8.2947416  30.0147584  -0.6997416  -8.5527416  30.3487584
   0.4522584 -21.0967416  24.8447584   0.8972584 -21.8037416  24.3777584
   1.1422584 -20.4607416  25.0317584 -21.8917416  -9.3677416  14.1327584
 -22.0397416  -8.7057416  13.4577584 -22.5617416 -10.0317416  13.9687584
  -6.5447416 -15.9027416  22.4247584  -5.6507416 -16.2127416  22.5647584
  -7.0797416 -16.6957416  22.4457584   2.4542584 -19.0437416  25.7697584
   3.3532584 -19.3677416  25.8337584   2.3062584 -18.9307416  24.8307584
  -4.4097416 -19.7987416  15.1267584  -4.6347416 -20.5337416  15.6967584
  -3.4537416 -19.7587416  15.1537584   5.1822584 -12.3527416  36.0387584
   5.7732584 -12.3017416  36.7897584   4.6692584 -11.5457416  36.0817584
  -2.8967416 -13.1987416  20.6857584  -2.8967416 -12.3147416  20.3187584
  -2.1927416 -13.6507416  20.2227584  -0.1147416 -10.1957416  36.7717584
  -0.0427416 -11.0097416  36.2727584   0.7772584 -10.0177416  37.0707584
  -4.2527416  -2.6397416  35.3017584  -4.0127416  -3.2657416  35.9857584
  -3.4537416  -2.1377416  35.1447584 -21.8277416  -9.7817416  17.0857584
 -22.0007416  -9.9967416  16.1687584 -21.9687416 -10.6037416  17.5557584
  -4.2617416 -15.3307416  19.5657584  -4.1197416 -15.2607416  18.6217584
  -3.9477416 -14.4987416  19.9187584  -5.2237416 -19.4487416  22.3187584
  -5.2707416 -19.6407416  23.2557584  -5.3647416 -20.2937416  21.8937584
   0.2812584 -15.5207416  12.9057584   0.3112584 -14.6027416  13.1747584
  -0.2297416 -15.5177416  12.0967584   0.2862584 -16.9847416  37.2367584
   0.9862584 -17.4127416  36.7447584  -0.3507416 -16.7247416  36.5717584
   7.1932584 -18.2537416  19.3547584   6.4812584 -18.8787416  19.4917584
   6.8172584 -17.4057416  19.5887584 -14.8837416 -20.6367416  17.6807584
 -14.4207416 -20.1617416  18.3707584 -15.1947416 -19.9537416  17.0867584
   3.2562584 -15.3637416  13.4927584   3.9692584 -15.0897416  12.9157584
   2.6692584 -15.8647416  12.9267584   5.5592584 -16.0987416  29.9207584
   5.9972584 -15.5727416  29.2517584   5.2532584 -16.8757416  29.4527584
  -9.1007416 -20.7577416  39.4137584  -9.9977416 -20.8907416  39.7187584
  -8.5617416 -20.8737416  40.1967584  -1.8647416 -17.1817416  28.3747584
  -2.2247416 -17.6597416  27.6277584  -1.2827416 -16.5297416  27.9837584
  -3.2547416  -8.1107416  39.9397584  -3.1857416  -8.6327416  40.7397584
  -2.8677416  -8.6617416  39.2597584   1.0072584  -4.7767416  40.3337584
   0.9702584  -4.1837416  41.0837584   1.8482584  -4.5867416  39.9177584
 -20.2037416  -5.1807416  38.2247584 -20.4377416  -5.5237416  37.3627584
 -19.2717416  -5.3807416  38.3177584  -1.3867416  -8.3587416  34.8737584
  -1.1857416  -9.2247416  35.2297584  -1.5277416  -8.5097416  33.9397584
   1.5772584  -5.1147416  37.1397584   1.6922584  -4.2287416  36.7977584
   1.2312584  -4.9877416  38.0237584   6.3692584 -11.1877416  33.1047584
   5.4772584 -10.9777416  32.8277584   6.2872584 -11.4037416  34.0337584
   4.7092584  -9.9167416  29.4467584   4.7782584 -10.8697416  29.3867584
   4.7982584  -9.7277416  30.3807584   5.3122584  -8.4897416  34.6037584
   5.9552584  -8.8897416  35.1907584   4.6462584  -8.1287416  35.1887584
 -21.8307416  -7.6427416  37.4157584 -21.5287416  -7.5557416  38.3197584
 -21.0627416  -7.9507416  36.9347584   1.3062584 -19.8307416  38.7347584
   1.9742584 -20.1357416  38.1207584   1.5992584 -18.9567416  38.9927584
 -22.1237416 -17.0847416  37.1997584 -21.9847416 -17.2307416  36.2647584
 -21.9297416 -16.1567416  37.3297584 -19.8897416 -11.3097416  33.5397584
 -20.4807416 -10.7417416  33.0447584 -19.3067416 -10.7057416  33.9997584
  -1.6127416 -16.5657416  35.0277584  -2.4567416 -16.3017416  35.3927584
  -1.5507416 -17.5017416  35.2177584   3.7372584 -15.9867416  36.5587584
   3.0142584 -16.5997416  36.4257584   4.5162584 -16.4717416  36.2857584
 -20.1577416 -14.4937416  33.9497584 -19.8907416 -13.6817416  33.5177584
 -20.7027416 -14.9417416  33.3017584   4.2022584 -13.8117416  31.5297584
   4.3572584 -13.9987416  32.4557584   3.3682584 -14.2407416  31.3357584
 -19.5717416  -2.8677416  35.4107584 -20.1967416  -3.5917416  35.4347584
 -18.7237416  -3.2747416  35.5877584 -17.6237416  -6.3207416  39.3507584
 -17.5567416  -6.9197416  38.6077584 -16.7157416  -6.1487416  39.6017584
  -0.6197416 -14.2167416  33.8537584  -0.1737416 -14.3357416  33.0157584
  -0.8217416 -15.1057416  34.1467584   3.2762584  -6.5897416  33.5317584
   4.0232584  -6.9967416  33.0927584   3.3612584  -6.8567416  34.4467584
 -21.0927416 -16.8177416  14.8467584 -21.4137416 -17.2347416  14.0467584
 -21.7207416 -17.0767416  15.5207584 -16.6447416  -0.0347416  35.9987584
 -16.1837416   0.7432584  35.6857584 -16.0057416  -0.7427416  35.9127584
   5.0822584 -18.6267416  11.4087584   4.3322584 -19.1997416  11.5697584
   4.7642584 -17.7497416  11.6197584  -5.2177416 -15.6207416  32.4847584
  -4.8797416 -16.5147416  32.5347584  -4.5667416 -15.1457416  31.9677584
  -4.1737416 -17.7727416  38.3187584  -3.3607416 -18.2707416  38.2337584
  -4.2207416 -17.5457416  39.2477584   6.4112584  -9.8557416  36.9007584
   6.5792584 -10.4117416  37.6617584   6.7692584  -9.0017416  37.1437584
  -2.7387416 -14.9637416  31.2967584  -2.3957416 -15.8257416  31.0617584
  -1.9597416 -14.4287416  31.4487584   6.6072584 -18.3997416  26.6917584
   6.4302584 -19.1807416  27.2167584   6.1002584 -17.7067416  27.1157584
   3.3352584  -9.1677416  38.2467584   2.6262584  -9.3327416  38.8677584
   4.0962584  -8.9777416  38.7947584  -4.9267416 -13.9407416  34.7417584
  -5.0487416 -14.8897416  34.7117584  -5.7907416 -13.5947416  34.9677584
  -1.2427416  -5.8827416  36.0397584  -0.5647416  -6.0627416  36.6907584
  -1.4197416  -6.7327416  35.6357584   7.0432584 -18.9717416  39.3277584
   6.5052584 -18.6417416  40.0467584   6.9132584 -18.3397416  38.6207584
   1.1942584 -16.8587416  15.6907584   1.0782584 -17.0427416  14.7587584
   1.4412584 -17.7007416  16.0727584   5.8912584 -16.5847416  34.5927584
   6.4222584 -15.9007416  35.0017584   6.4642584 -17.3507416  34.5677584
 -20.2897416 -17.7747416  39.6137584 -20.4667416 -16.8357416  39.6567584
 -20.8017416 -18.0827416  38.8657584 -12.9167416  -9.7597416  27.7987584
 -12.6057416 -10.3417416  28.4917584 -12.6837416 -10.2097416  26.9857584
 -20.5527416  -5.6037416  35.3317584 -21.3137416  -6.0967416  35.0267584
 -19.7997416  -6.1137416  35.0327584  -2.6707416  -5.3457416  39.5977584
  -2.8847416  -6.2607416  39.4187584  -2.2297416  -5.3637416  40.4477584
  -2.8037416 -12.3617416  34.0287584  -2.0057416 -12.8897416  34.0757584
  -3.5027416 -12.9607416  34.2927584   0.7992584  -8.8447416  24.8127584
   0.5002584  -8.9377416  23.9087584   1.0592584  -7.9267416  24.8867584
  -2.1467416  -0.9117416  39.1727584  -1.9997416  -0.6327416  40.0757584
  -2.2417416  -0.0957416  38.6807584   0.2902584 -14.4717416  31.3517584
   0.7652584 -13.7757416  30.8977584   0.7762584 -15.2697416  31.1417584
 -22.6857416 -14.3917416  35.6557584 -21.8057416 -14.2577416  35.3017584
 -23.1287416 -13.5537416  35.5207584  -1.5237416 -17.3527416  20.8567584
  -0.6357416 -17.1347416  21.1397584  -1.8497416 -16.5487416  20.4507584
 -17.5287416 -10.0097416  18.1677584 -17.9617416 -10.6427416  18.7417584
 -17.2317416  -9.3167416  18.7567584 -16.7547416 -15.5267416  23.6097584
 -16.0447416 -15.6397416  22.9777584 -16.8267416 -14.5797416  23.7237584
   3.0712584  -7.3467416  36.0017584   3.1132584  -7.9687416  36.7287584
   2.5472584  -6.6207416  36.3387584 -22.2977416 -11.7997416  24.5177584
 -22.9797416 -11.7847416  25.1897584 -22.5817416 -12.4767416  23.9027584
  -0.7997416  -7.6187416  26.7377584  -0.1587416  -8.1867416  26.3097584
  -0.3167416  -7.2147416  27.4587584  -1.4557416   2.0182584  37.7747584
  -0.7547416   2.5722584  37.4307584  -1.9867416   2.6072584  38.3097584
 -19.6697416  -5.6567416  28.0617584 -19.5187416  -4.8297416  28.5187584
 -20.4827416  -5.5177416  27.5757584   1.3072584 -17.8497416  31.7427584
   1.7812584 -17.0897416  31.4037584   1.7352584 -18.0467416  32.5757584
  -9.0647416 -15.1127416  26.2587584  -8.5617416 -14.7177416  25.5467584
  -9.3787416 -14.3677416  26.7717584   5.3812584  -9.0487416  39.9687584
   6.2312584  -8.6097416  39.9647584   5.3982584  -9.5977416  40.7527584
 -18.8927416  -7.2497416  30.7157584 -19.4827416  -6.5197416  30.9007584
 -18.9367416  -7.3587416  29.7657584  -3.4537416 -12.4707416  30.5847584
  -3.8367416 -11.6677416  30.9377584  -3.6947416 -13.1497416  31.2157584
  -5.5907416 -19.3237416  24.8827584  -5.3497416 -19.8817416  25.6227584
  -5.8107416 -18.4807416  25.2797584 -17.3457416  -7.2487416  36.7567584
 -17.9557416  -7.8837416  36.3797584 -16.5387416  -7.7437416  36.8937584
 -16.6307416 -17.9197416  34.4807584 -15.7747416 -18.1317416  34.8537584
 -17.1797416 -17.7207416  35.2387584 -22.1557416  -7.4417416  34.1447584
 -23.0947416  -7.6177416  34.2007584 -21.8257416  -8.0947416  33.5277584
 -20.7527416  -9.0607416  32.2917584 -20.0287416  -8.5167416  31.9827584
 -21.4877416  -8.8267416  31.7257584   4.6672584 -13.2697416  17.9967584
   4.2722584 -12.5097416  17.5687584   4.6462584 -13.9567416  17.3307584
 -18.1677416 -13.3597416  10.9807584 -18.2567416 -12.4237416  11.1597584
 -17.2267416 -13.5257416  11.0357584 -19.2277416 -16.2717416  25.3427584
 -18.5197416 -15.8187416  24.8837584 -19.9597416 -15.6547416  25.3237584
  -8.4387416 -12.9707416  31.1107584  -8.3797416 -12.0187416  31.1877584
  -8.4087416 -13.1377416  30.1687584 -20.3727416   7.8822584  31.9417584
 -21.0397416   7.1972584  31.9237584 -20.6627416   8.5172584  31.2867584
  -3.1667416  -4.5027416  32.2857584  -2.5317416  -4.3077416  32.9747584
  -3.3997416  -3.6477416  31.9237584   4.3282584  -9.1837416  32.0517584
   3.5472584  -9.6707416  32.3147584   4.8982584  -9.2097416  32.8197584
 -21.0967416 -17.0067416  27.9817584 -21.5387416 -17.4527416  27.2587584
 -21.7257416 -16.3487416  28.2777584 -19.0207416 -18.4267416  16.1607584
 -18.0667416 -18.3497416  16.1937584 -19.3037416 -17.6817416  15.6307584
  -0.4967416 -11.2097416  32.3837584  -1.0857416 -10.4597416  32.2937584
  -1.0437416 -11.8997416  32.7607584  -3.2527416 -21.5067416  27.8567584
  -2.9547416 -21.2167416  26.9947584  -4.1267416 -21.1287416  27.9487584
  -6.5697416 -18.9727416  17.6557584  -6.3087416 -19.8487416  17.3727584
  -5.7497416 -18.5457416  17.9017584  -4.9517416 -17.9167416  19.4427584
  -4.7847416 -16.9867416  19.5987584  -5.1117416 -18.2817416  20.3127584
  -1.1077416 -21.5537416  30.0257584  -0.4957416 -21.7677416  29.3207584
  -1.8507416 -21.1447416  29.5817584  -1.6927416 -19.4547416  15.3587584
  -1.6957416 -18.9057416  16.1437584  -1.2457416 -18.9257416  14.6977584
  -0.7987416 -11.4257416  26.8397584  -0.8237416 -11.2467416  25.8987584
   0.0812584 -11.7707416  26.9947584 -21.7737416   4.0382584  24.5907584
 -22.5977416   3.6742584  24.9127584 -21.5757416   3.5262584  23.8067584
 -20.8727416   8.1222584  29.2617584 -20.5597416   7.2182584  29.2747584
 -21.2957416   8.2172584  28.4077584 -21.6507416  -3.1047416  30.6597584
 -22.5357416  -2.7847416  30.4857584 -21.7717416  -4.0197416  30.9147584
 -20.7267416   6.7682584  14.1277584 -21.1587416   7.2092584  13.3967584
 -20.3397416   7.4782584  14.6407584 -20.0707416   1.6762584  32.3237584
 -19.9177416   2.0452584  31.4547584 -20.2597416   2.4342584  32.8767584
   2.4222584 -18.3187416  23.0297584   2.0492584 -18.9257416  22.3907584
   3.2782584 -18.0867416  22.6697584 -19.7537416   5.2022584  26.1917584
 -20.3947416   4.7282584  25.6627584 -19.6907416   6.0632584  25.7787584
 -21.5987416   2.8132584  39.5957584 -22.0547416   2.0232584  39.8847584
 -20.6877416   2.5392584  39.4877584  -2.8657416   4.3972584  38.9997584
  -3.7517416   4.7532584  38.9367584  -2.4247416   4.7092584  38.2097584
   2.7092584 -19.4247416  12.8937584   1.8902584 -18.9317416  12.8487584
   2.4722584 -20.2467416  13.3227584  -4.6447416 -10.1177416  28.7507584
  -4.6937416  -9.8767416  29.6757584  -3.7787416  -9.8207416  28.4717584
 -11.0117416 -17.3847416  26.0857584 -11.7487416 -17.1787416  26.6617584
 -10.3097416 -16.8037416  26.3777584 -21.9237416  -5.6727416  31.6157584
 -21.7867416  -5.9187416  32.5307584 -22.7637416  -6.0697416  31.3837584
 -15.6727416   2.0642584  28.1367584 -15.8467416   2.8762584  27.6627584
 -15.3237416   1.4682584  27.4737584 -17.9937416  -0.9607416  30.9537584
 -17.9077416  -0.0327416  31.1717584 -17.9197416  -1.4127416  31.7937584
  -5.7527416   5.2952584  38.8247584  -6.4137416   5.5432584  39.4707584
  -6.2547416   4.9282584  38.0967584  -6.7597416 -17.0017416  26.3907584
  -6.7257416 -17.0557416  27.3457584  -7.3537416 -16.2717416  26.2137584
 -19.9267416   5.8972584  22.8867584 -20.7827416   5.4722584  22.8347584
 -19.5387416   5.7642584  22.0227584 -22.6357416   4.3062584  14.2617584
 -22.2037416   3.7642584  13.6007584 -21.9627416   4.9272584  14.5397584
   4.5502584 -20.3857416  16.8867584   4.8242584 -19.9027416  16.1067584
   5.2072584 -21.0747416  16.9857584 -12.9087416   6.7582584  28.1877584
 -12.2587416   6.0572584  28.1407584 -13.7457416   6.3212584  28.0297584
 -22.1837416   3.5192584  30.4457584 -21.2557416   3.3022584  30.5327584
 -22.2157416   4.1502584  29.7277584 -10.5367416  -5.1407416  39.3957584
  -9.8557416  -4.4687416  39.4257584 -10.3527416  -5.6337416  38.5957584
 -21.8857416   8.3932584  20.5677584 -21.3877416   7.8322584  19.9717584
 -22.7287416   8.5172584  20.1317584 -22.6777416 -21.2867416  16.7637584
 -22.6727416 -21.3587416  15.8087584 -22.1327416 -22.0147416  17.0617584
   0.8312584   7.6182584  37.9937584   1.0562584   7.0902584  38.7597584
   0.9082584   8.5232584  38.2957584  -5.0037416 -20.0677416  12.6347584
  -4.9887416 -20.2577416  13.5727584  -4.8107416 -20.9077416  12.2167584
 -14.9607416 -16.9117416  39.4507584 -14.5857416 -16.8267416  40.3267584
 -15.4437416 -17.7377416  39.4747584 -22.2557416   1.4672584  19.0057584
 -22.6207416   1.8722584  18.2197584 -22.9497416   1.5452584  19.6607584
  -1.7147416 -18.7187416  38.3377584  -1.1777416 -19.2997416  38.8767584
  -1.1007416 -18.0627416  38.0067584   6.1192584  -2.2107416  39.7327584
   5.6872584  -2.5357416  38.9427584   6.9382584  -2.7027416  39.7787584
  -0.3537416   1.2662584  35.0067584   0.4832584   1.7312584  35.0267584
  -0.8857416   1.7562584  34.3797584   6.9322584 -20.3157416  33.3467584
   7.1652584 -20.9677416  32.6857584   5.9902584 -20.4307416  33.4757584
  -8.1927416   2.7442584  39.4877584  -9.0507416   3.1672584  39.5087584
  -7.7177416   3.1982584  38.7917584 -21.3227416  -1.0527416  36.7407584
 -20.8157416  -1.6817416  36.2267584 -21.9287416  -0.6617416  36.1107584
   3.5942584 -11.4367416  40.2897584   3.5742584 -10.8857416  41.0717584
   3.4462584 -10.8287416  39.5647584   3.6452584  -3.3227416  34.5997584
   3.7912584  -2.4917416  34.1487584   2.7102584  -3.4967416  34.4887584
   3.8212584 -16.3967416  40.7757584   2.9972584 -16.7937416  40.4937584
   3.8162584 -15.5267416  40.3767584 -19.9637416   4.1462584  33.7687584
 -19.0377416   3.9312584  33.6537584 -19.9587416   5.0022584  34.1977584
   1.0702584   0.2002584  37.7997584   1.7562584   0.6812584  37.3377584
   0.2862584   0.7392584  37.6917584   3.2572584  -4.0277416  39.4907584
   3.9472584  -4.6577416  39.2857584   3.6182584  -3.1817416  39.2257584
   5.0032584  -3.6477416  37.2577584   4.5532584  -3.2617416  36.5067584
   5.0642584  -4.5797416  37.0477584  -1.9837416  -1.1267416  35.1657584
  -1.3647416  -0.3997416  35.2307584  -1.9967416  -1.3477416  34.2337584
   3.3102584 -20.8887416  37.1587584   3.0802584 -21.4777416  36.4407584
   4.1032584 -21.2687416  37.5367584   1.2912584  -9.3097416  40.0047584
   0.8982584  -8.4367416  39.9967584   0.5542584  -9.9027416  40.1547584
 -19.0107416 -18.9257416  12.1557584 -19.6477416 -18.4677416  11.6067584
 -19.5377416 -19.5117416  12.6977584   1.4632584   7.6492584  35.2827584
   1.4802584   7.3832584  36.2017584   1.6632584   6.8492584  34.7977584
  -3.4097416   1.2622584  35.8577584  -3.2987416   0.5402584  35.2387584
  -2.6947416   1.1542584  36.4837584  -2.0687416 -17.6637416  30.8667584
  -1.9437416 -17.6137416  29.9197584  -1.1977416 -17.5127416  31.2327584
  -5.9707416 -20.3557416  37.7097584  -5.3307416 -20.9707416  38.0697584
  -5.6837416 -19.4987416  38.0247584 -19.6337416   8.1322584  34.4847584
 -19.9117416   7.9342584  33.5907584 -19.1977416   8.9822584  34.4187584
   1.6152584 -12.1497416  30.7357584   2.4462584 -11.9347416  31.1597584
   0.9472584 -11.8087416  31.3307584 -20.1027416  -0.4047416  11.1547584
 -20.9437416   0.0532584  11.1637584 -19.9167416  -0.5447416  10.2257584
   1.1512584 -19.8987416  33.9817584   0.2772584 -19.6197416  34.2567584
   1.1942584 -20.8247416  34.2207584   5.9992584  -5.4397416  39.6587584
   6.6082584  -4.7107416  39.5437584   6.5602584  -6.2107416  39.7417584
   6.5512584 -15.0997416  32.3617584   6.1622584 -15.3947416  31.5387584
   6.2192584 -15.7127416  33.0177584 -17.7677416  -1.3057416  33.9377584
 -17.3737416  -0.7597416  34.6177584 -18.5737416  -1.6377416  34.3337584
   1.7592584   6.3472584  40.2077584   2.1212584   5.5022584  39.9417584
   2.3752584   6.6772584  40.8617584  -0.4907416 -20.9627416  10.6397584
   0.0422584 -21.2397416  11.3847584   0.1452584 -20.7487416   9.9567584
 -20.7427416 -19.1237416  30.2597584 -20.7707416 -18.4647416  29.5657584
 -21.4147416 -19.7597416  30.0147584 -21.9377416 -15.3487416  11.5247584
 -21.6087416 -14.8947416  10.7487584 -21.1937416 -15.3677416  12.1257584
 -18.2437416   4.2962584  36.5937584 -19.1787416   4.4622584  36.7107584
 -18.1057416   3.4252584  36.9677584 -12.8057416   4.6672584  32.5887584
 -11.9787416   4.1962584  32.6937584 -12.5457416   5.5792584  32.4527584
  -9.6927416   7.6812584  28.7237584  -9.3857416   7.0922584  28.0347584
 -10.4617416   8.1092584  28.3477584  -3.4047416  -4.5617416  44.0817584
  -3.4997416  -5.4397416  44.4517584  -4.1697416  -4.4567416  43.5167584
 -15.8427416   5.7082584  44.7527584 -16.5477416   5.1512584  45.0827584
 -15.8177416   6.4472584  45.3607584 -22.1707416  -7.4927416  49.1557584
 -22.9937416  -7.1727416  48.7837584 -21.8977416  -8.1937416  48.5647584
 -11.5807416 -10.2177416  46.3237584 -12.1647416  -9.7677416  46.9337584
 -11.1277416 -10.8687416  46.8597584  -0.7267416 -12.0617416  46.9557584
  -0.8157416 -11.8277416  46.0317584  -0.0677416 -11.4547416  47.2937584
   5.2302584 -16.0027416  46.1687584   4.2902584 -15.8827416  46.0327584
   5.4092584 -16.8867416  45.8497584  -4.4437416  -0.2067416  41.3007584
  -5.0977416   0.4832584  41.1867584  -4.5277416  -0.7487416  40.5167584
 -12.1217416  -5.5817416  47.2847584 -11.6727416  -4.7407416  47.3687584
 -12.9297416  -5.4727416  47.7867584 -20.4177416  -0.7957416  44.4657584
 -19.6247416  -0.2597416  44.4667584 -20.1337416  -1.6457416  44.8017584
  -9.2767416  -6.8877416  41.1547584  -9.9057416  -7.5887416  41.3257584
  -9.7287416  -6.3027416  40.5467584 -11.0467416   1.5522584  49.1627584
 -11.1167416   2.3162584  48.5917584 -10.7307416   0.8522584  48.5907584
  -8.2757416   4.4832584  42.5107584  -7.6517416   4.4772584  41.7847584
  -7.8347416   3.9982584  43.2087584 -21.2177416 -13.6977416  45.7577584
 -20.8937416 -14.4857416  45.3227584 -20.4317416 -13.2717416  46.1007584
   5.7282584  -5.9947416  48.2627584   5.6422584  -5.4167416  47.5047584
   5.3812584  -5.4847416  48.9947584 -14.4527416 -15.1817416  44.1217584
 -13.7887416 -14.6597416  43.6717584 -14.8187416 -14.5887416  44.7787584
 -15.0127416  -7.7957416  47.7117584 -15.6477416  -8.0567416  48.3787584
 -14.4417416  -8.5577416  47.6127584  -0.3517416 -17.9607416  43.2837584
  -1.1247416 -17.9907416  42.7197584  -0.0087416 -17.0737416  43.1727584
 -11.6147416   4.7312584  42.1777584 -11.5557416   5.6812584  42.2797584
 -11.1677416   4.3792584  42.9467584  -8.2737416  -2.0397416  48.4267584
  -8.7857416  -2.6047416  49.0047584  -8.8997416  -1.3857416  48.1147584
 -17.8897416  -7.4857416  46.6737584 -17.5637416  -8.2847416  47.0887584
 -18.4107416  -7.0577416  47.3527584 -19.8067416   2.1552584  45.6127584
 -20.2467416   1.5652584  46.2247584 -19.0157416   1.6842584  45.3507584
 -15.4297416   7.2462584  42.2997584 -16.1257416   6.7212584  41.9047584
 -15.5197416   7.0942584  43.2407584  -7.1167416  -2.9587416  45.1687584
  -6.9397416  -2.9627416  44.2287584  -6.5587416  -3.6527416  45.5207584
 -16.7997416 -20.6857416  45.0827584 -15.9507416 -21.0947416  44.9137584
 -16.6457416 -19.7507416  44.9507584 -13.3947416 -12.8447416  47.1837584
 -12.9057416 -13.1107416  47.9627584 -12.7877416 -12.2837416  46.7007584
 -14.1437416   1.5192584  46.3467584 -13.6427416   1.1372584  47.0677584
 -13.5017416   1.6442584  45.6477584 -10.6157416 -18.5387416  47.2687584
 -10.2237416 -18.0587416  47.9987584  -9.9807416 -19.2257416  47.0637584
 -18.3167416 -17.2507416  49.2307584 -18.9877416 -17.8887416  49.4707584
 -18.0547416 -17.4987416  48.3447584 -10.1907416 -18.8237416  43.2657584
 -10.5587416 -18.4537416  42.4637584  -9.5317416 -18.1867416  43.5437584
  -9.2017416 -11.8727416  43.7877584  -8.7247416 -12.6197416  44.1477584
  -8.5857416 -11.1417416  43.8507584 -12.1257416 -10.2807416  41.0947584
 -11.8437416  -9.6007416  40.4827584 -12.2127416  -9.8267416  41.9337584
 -16.6087416   7.2202584  48.0117584 -17.1837416   7.7562584  48.5567584
 -15.8677416   7.7912584  47.8087584  -0.6477416  -9.5847416  49.3137584
  -0.6037416  -8.6337416  49.2217584   0.0112584  -9.9167416  48.7037584
 -12.6637416 -13.0217416  43.5657584 -12.0067416 -12.9607416  42.8727584
 -12.2127416 -12.7127416  44.3517584 -10.2907416 -12.1737416  47.6637584
  -9.8827416 -12.6097416  46.9147584 -10.1887416 -12.7927416  48.3867584
 -14.3047416 -17.4277416  49.2317584 -13.9437416 -17.1117416  48.4037584
 -13.8257416 -18.2377416  49.4087584 -18.6347416 -13.5257416  47.1777584
 -19.2067416 -13.2347416  47.8877584 -18.4837416 -12.7397416  46.6527584
 -15.1607416  -5.9767416  41.1807584 -14.6687416  -6.6597416  41.6357584
 -14.6567416  -5.1767416  41.3307584 -13.0347416 -18.6817416  46.2607584
 -12.1857416 -18.8307416  46.6787584 -13.0067416 -19.2107416  45.4637584
  -3.0307416  -4.5447416  47.4127584  -3.1807416  -3.7697416  46.8727584
  -3.6767416  -4.4767416  48.1157584 -13.3117416  -5.6347416  44.4937584
 -13.0407416  -5.7667416  45.4027584 -12.9007416  -4.8087416  44.2387584
 -10.4767416   1.8732584  44.6517584 -11.2357416   1.3572584  44.3807584
  -9.7317416   1.4402584  44.2357584 -18.9507416   6.7012584  46.7297584
 -19.2737416   7.5562584  46.4447584 -18.0667416   6.8732584  47.0517584
  -3.8157416 -13.2187416  46.5887584  -2.8977416 -13.1877416  46.8597584
  -3.9617416 -14.1307416  46.3397584 -17.0037416  -5.4877416  44.9317584
 -16.2117416  -5.9237416  44.6177584 -17.1887416  -5.9047416  45.7737584
  -7.1717416  -9.9147416  44.3427584  -6.3517416 -10.3917416  44.4657584
  -7.3427416  -9.5067416  45.1927584 -13.9187416  -1.1497416  42.2187584
 -14.5237416  -1.7877416  42.5967584 -14.0347416  -0.3637416  42.7527584
  -9.3627416 -21.0017416  45.7447584  -8.5457416 -21.0227416  46.2417584
  -9.0887416 -21.0557416  44.8287584 -10.9457416 -12.6947416  41.4377584
 -11.3337416 -11.8637416  41.1657584 -10.0017416 -12.5397416  41.4117584
  -8.0747416 -16.5357416  47.3557584  -7.5187416 -17.3117416  47.2867584
  -7.5387416 -15.8967416  47.8257584  -9.1307416  -9.5257416  48.9307584
  -9.8487416  -9.1187416  49.4167584  -9.4157416 -10.4287416  48.7937584
 -19.6087416  -6.2787416  48.6147584 -20.2067416  -6.1517416  47.8787584
 -20.0807416  -6.8587416  49.2107584  -9.8537416  -3.3747416  45.3307584
  -9.9807416  -3.0877416  46.2347584  -8.9207416  -3.2387416  45.1647584
 -17.5177416  -4.9687416  41.8637584 -16.6087416  -5.1647416  42.0927584
 -17.7117416  -5.5547416  41.1327584  -4.8427416 -16.7877416  40.9537584
  -5.7547416 -16.5197416  41.0697584  -4.6087416 -17.2067416  41.7827584
 -16.7247416  -9.8097416  43.7457584 -17.5447416  -9.3167416  43.7087584
 -16.0867416  -9.1877416  44.0947584 -10.9267416  -9.6247416  43.7597584
 -11.2107416  -9.6027416  44.6727584 -10.5227416 -10.4857416  43.6537584
 -16.4247416 -17.6877416  46.8977584 -15.9827416 -17.4047416  47.6977584
 -16.0297416 -17.1577416  46.2047584  -1.8137416  -4.7487416  42.1057584
  -1.4567416  -3.8747416  41.9467584  -2.4017416  -4.6357416  42.8517584
  -4.8327416 -11.3697416  44.9597584  -4.2427416 -10.6257416  45.0847584
  -4.5807416 -11.9927416  45.6407584 -14.8047416  -7.7647416  44.9067584
 -14.1227416  -7.1507416  44.6357584 -14.8807416  -7.6377416  45.8527584
 -14.3007416   7.9842584  45.3397584 -13.5467416   8.2502584  44.8127584
 -14.1447416   8.3802584  46.1967584  -4.9497416 -15.7687416  46.9397584
  -4.0327416 -15.9537416  46.7377584  -5.4387416 -16.1587416  46.2157584
 -14.9827416 -11.8607416  42.5217584 -14.1077416 -12.1707416  42.7537584
 -15.4367416 -11.7717416  43.3597584   4.3262584  -8.0757416  47.1957584
   3.4062584  -7.8417416  47.0737584   4.7242584  -7.2917416  47.5737584
 -17.4307416 -15.7147416  45.1597584 -16.8687416 -14.9727416  44.9367584
 -17.6797416 -15.5617416  46.0717584   0.7802584 -10.2897416  43.9607584
  -0.1117416  -9.9437416  43.9427584   1.3052584  -9.6217416  43.5197584
  -5.7477416 -17.2747416  44.3137584  -5.4837416 -18.1377416  44.6327584
  -6.4737416 -17.4527416  43.7147584   6.0242584 -14.2937416  42.9077584
   6.0632584 -14.5877416  43.8177584   6.7332584 -14.7687416  42.4727584
 -17.1327416   2.0542584  40.7017584 -16.7117416   2.3032584  41.5247584
 -16.4227416   1.6992584  40.1677584 -19.7787416  -3.2977416  42.0527584
 -19.6497416  -2.3497416  42.0817584 -18.9337416  -3.6467416  41.7717584
 -19.2517416  -8.7837416  43.8947584 -20.0847416  -9.1517416  44.1917584
 -19.3447416  -7.8407416  44.0307584 -12.6867416 -19.8027416  44.0317584
 -13.2367416 -19.7317416  43.2507584 -11.8327416 -19.4717416  43.7537584
 -15.0047416  -5.0217416  47.6837584 -15.1917416  -5.9517416  47.8087584
 -14.9737416  -4.6607416  48.5697584  -9.7727416  -7.1637416  43.8607584
  -9.3767416  -6.8887416  43.0347584 -10.2047416  -7.9927416  43.6557584
 -15.5957416 -13.5597416  46.0057584 -16.1647416 -12.8077416  46.1707584
 -14.8377416 -13.4167416  46.5717584  -1.7417416 -11.9257416  42.6337584
  -1.2737416 -12.5487416  43.1887584  -1.2617416 -11.9347416  41.8047584
 -17.9117416  -2.7127416  47.1107584 -17.5147416  -1.8677416  47.3237584
 -17.3977416  -3.0397416  46.3727584 -21.9287416   7.5672584  41.8367584
 -21.6287416   8.0792584  41.0857584 -21.7687416   6.6572584  41.5867584
  -6.6547416  -4.7307416  47.5327584  -7.3597416  -5.0247416  46.9547584
  -7.0967416  -4.4887416  48.3467584 -13.0907416  -4.3017416  41.2637584
 -12.3257416  -4.6767416  40.8277584 -12.7287416  -3.8047416  41.9977584
  -8.4197416  -0.6307416  41.6707584  -9.2897416  -0.3457416  41.3917584
  -7.9577416  -0.8247416  40.8557584   4.1232584  -9.6577416  42.4807584
   4.1142584  -9.0827416  43.2467584   4.8272584 -10.2817416  42.6557584
  -6.9727416 -18.2547416  42.1127584  -6.4137416 -19.0307416  42.0747584
  -7.3177416 -18.1637416  41.2247584  -5.9077416   8.3782584  46.2977584
  -6.0567416   7.6432584  46.8937584  -6.1907416   8.0542584  45.4427584
 -12.9767416   5.6632584  46.0207584 -13.8737416   5.8812584  45.7667584
 -12.4387416   5.9772584  45.2937584 -11.7197416   4.1412584  47.9447584
 -11.9127416   4.6232584  48.7477584 -12.0467416   4.7042584  47.2427584
  -8.8397416  -6.0337416  46.4107584  -8.6887416  -6.9717416  46.2967584
  -9.4237416  -5.7957416  45.6907584 -13.0847416   6.5042584  49.2357584
 -13.3847416   6.4962584  48.3277584 -13.6597416   7.1322584  49.6727584
  -8.9467416 -14.8267416  43.0897584  -9.7387416 -14.3637416  42.8137584
  -9.2557416 -15.4717416  43.7257584 -12.3007416  -1.6987416  46.7297584
 -12.9507416  -2.0517416  46.1227584 -12.8117416  -1.1877416  47.3577584
  -9.7157416 -16.4397416  45.2837584  -9.1237416 -16.4487416  46.0357584
 -10.4087416 -17.0577416  45.5167584 -22.7687416  -0.0877416  45.3187584
 -21.8757416  -0.4107416  45.2027584 -23.3167416  -0.7287416  44.8647584
  -7.0457416   4.3162584  45.3657584  -7.1657416   3.5342584  44.8257584
  -7.8867416   4.4332584  45.8087584 -17.0087416  -0.1687416  47.3847584
 -16.3527416   0.2142584  47.9667584 -17.8247416  -0.1307416  47.8837584
  -5.3217416   6.1062584  48.3597584  -6.1677416   5.7232584  48.5897584
  -4.9347416   5.4832584  47.7447584 -20.4967416  -2.7787416  46.1437584
 -21.1437416  -2.9397416  46.8317584 -19.6517416  -2.9137416  46.5727584
  -8.5007416   7.2162584  47.9917584  -8.0507416   6.5812584  48.5477584
  -8.8397416   6.6982584  47.2617584 -16.3107416  -2.6617416  42.9997584
 -16.9027416  -2.0467416  42.5667584 -16.8097416  -3.4767416  43.0547584
 -15.5417416   1.5232584  44.0117584 -15.2337416   2.2862584  43.5237584
 -15.1607416   1.6262584  44.8837584 -13.6397416 -16.1277416  46.3677584
 -13.9557416 -15.8947416  45.4947584 -13.3877416 -17.0477416  46.2947584
 -19.5597416  -6.0817416  43.8297584 -19.1707416  -5.4237416  43.2537584
 -19.0067416  -6.0737416  44.6107584 -11.5357416   7.8582584  41.3737584
 -11.6627416   7.5352584  40.4817584 -12.0807416   8.6442584  41.4237584
 -16.1017416   3.3012584  47.6437584 -15.4927416   2.8182584  47.0857584
 -16.7547416   3.6532584  47.0387584 -22.0257416  -3.7877416  43.6897584
 -21.4317416  -3.7327416  44.4387584 -21.5007416  -3.4967416  42.9447584
 -11.9007416   0.7062584  42.5647584 -11.9357416  -0.1777416  42.1987584
 -12.3727416   1.2472584  41.9317584 -22.1917416  -6.8227416  43.0527584
 -22.8207416  -6.1117416  43.1717584 -21.3407416  -6.4227416  43.2297584
  -2.7207416 -18.5337416  42.0377584  -2.3737416 -19.2177416  41.4647584
  -3.5817416 -18.8577416  42.3027584 -11.9407416  -3.0937416  43.3837584
 -12.1347416  -2.1617416  43.4887584 -11.2447416  -3.2667416  44.0187584
  -9.1627416 -21.1227416  42.4667584  -9.9437416 -21.3457416  41.9607584
  -9.1577416 -20.1657416  42.4927584 -19.6327416 -20.9827416  45.1937584
 -18.6777416 -20.9157416  45.1877584 -19.9287416 -20.1577416  45.5777584
 -13.3857416  -0.1107416  48.5937584 -13.9897416  -0.0837416  49.3357584
 -12.5957416   0.3272584  48.9117584   2.6572584   3.6052584  49.2027584
   1.7702584   3.8532584  48.9437584   3.0942584   3.3842584  48.3797584
  -9.5327416   4.4552584  46.1837584  -9.7287416   4.2892584  47.1057584
 -10.2937416   4.1182584  45.7117584  -6.1407416  -9.2827416  41.8167584
  -6.6627416  -8.5277416  41.5437584  -6.5747416  -9.6007416  42.6087584
  -8.3057416  -8.7137416  46.4917584  -8.4337416  -8.8917416  47.4237584
  -9.1887416  -8.7247416  46.1217584  -3.7807416  -6.8677416  46.2257584
  -3.6277416  -6.0247416  46.6517584  -3.9847416  -7.4657416  46.9447584
 -10.6937416  -3.2167416  48.3567584 -11.0617416  -2.9887416  49.2107584
 -11.2417416  -2.7477416  47.7267584   2.4132584  -6.6997416  41.9727584
   2.5112584  -7.4797416  41.4257584   1.6302584  -6.2647416  41.6317584
  -3.9387416   6.0442584  43.9687584  -3.0797416   5.7622584  44.2817584
  -4.5537416   5.7112584  44.6217584 -14.4487416 -17.3877416  42.4797584
 -14.3577416 -16.7447416  43.1827584 -15.2697416 -17.8417416  42.6737584
 -11.6047416   7.1972584  44.0887584 -11.5947416   8.0282584  44.5647584
 -11.2017416   7.4002584  43.2437584 -21.1257416   6.8842584  48.2017584
 -20.4567416   6.3752584  47.7457584 -21.9107416   6.3382584  48.1637584
 -21.3937416   5.1892584  41.0157584 -20.6177416   5.5022584  40.5507584
 -21.5717416   4.3302584  40.6337584  -0.4407416  -6.9357416  49.3077584
  -1.0667416  -6.8997416  50.0307584   0.3312584  -6.4737416  49.6357584
  -9.8507416  -0.1997416  46.9837584  -9.3207416   0.2402584  46.3187584
 -10.4037416  -0.8047416  46.4887584 -19.3657416 -15.3847416  42.5247584
 -18.8037416 -14.7177416  42.1297584 -18.8307416 -15.7667416  43.2207584
  -5.7947416   2.0322584  40.7187584  -5.3397416   2.8022584  41.0597584
  -6.6657416   2.3522584  40.4827584  -4.5477416  -8.9677416  48.0557584
  -5.0997416  -9.5957416  47.5897584  -5.1477416  -8.5157416  48.6487584
 -22.6697416 -18.0067416  46.4567584 -22.8147416 -18.9207416  46.2147584
 -22.7337416 -17.9987416  47.4117584 -18.0587416   4.8642584  42.7007584
 -17.9757416   4.1432584  43.3247584 -18.8787416   5.2952584  42.9387584
 -17.2887416  -0.7017416  41.2537584 -18.1937416  -0.6627416  40.9437584
 -16.9377416   0.1712584  41.0797584 -14.0737416   3.7202584  43.4037584
 -13.3537416   3.7902584  42.7777584 -14.5137416   4.5692584  43.3587584
 -17.9377416   0.4402584  45.1127584 -17.3227416   0.7712584  44.4577584
 -17.4187416   0.3692584  45.9147584 -21.6227416   2.3022584  42.9017584
 -21.1027416   1.8062584  42.2697584 -21.1847416   2.1562584  43.7397584
   3.6942584   1.8442584  44.5097584   4.4612584   1.7302584  43.9487584
   3.3462584   2.7022584  44.2687584  -4.3197416 -13.5377416  42.2267584
  -3.6067416 -13.1837416  42.7577584  -4.7557416 -12.7657416  41.8647584
  -8.3537416  -0.6557416  44.3977584  -8.4387416  -0.7987416  43.4547584
  -7.7837416  -1.3637416  44.6967584  -7.0087416   7.1572584  43.8727584
  -7.1447416   6.2312584  43.6727584  -7.6767416   7.6142584  43.3617584
 -13.7207416 -20.3897416  41.7947584 -14.4047416 -21.0597416  41.7707584
 -14.1337416 -19.6117416  41.4217584  -8.1357416 -13.7697416  45.9747584
  -7.4437416 -13.8907416  45.3247584  -8.4067416 -14.6587416  46.2037584
 -10.5637416 -15.2197416  48.4967584  -9.7427416 -15.6467416  48.2537584
 -11.2297416 -15.6637416  47.9717584   2.1542584  -6.4487416  47.0347584
   1.2652584  -6.2217416  46.7607584   2.6852584  -5.6957416  46.7767584
  -3.4187416  -9.5417416  42.3277584  -4.3617416  -9.4467416  42.1927584
  -3.2457416 -10.4687416  42.1607584   4.9542584 -18.7807416  44.5687584
   5.4092584 -19.5477416  44.2207584   4.2342584 -18.6307416  43.9567584
  -6.9367416 -14.5487416  41.2797584  -7.6037416 -14.7137416  41.9467584
  -6.3497416 -13.9087416  41.6807584   2.6442584 -14.5957416  46.1187584
   2.0792584 -15.3587416  45.9977584   2.9572584 -14.3867416  45.2377584
  -6.0987416 -14.5597416  44.5057584  -5.6097416 -14.0507416  43.8587584
  -6.0217416 -15.4657416  44.2057584   6.7262584 -20.8657416  43.9957584
   7.3892584 -20.8027416  43.3087584   6.3362584 -21.7317416  43.8737584
 -22.2477416 -18.1287416  42.7257584 -21.9027416 -17.6237416  41.9897584
 -23.1867416 -18.1957416  42.5517584   2.6462584   1.4352584  46.9667584
   3.3572584   1.0262584  47.4607584   3.0192584   1.5992584  46.1007584
  -2.9777416  -9.4037416  45.4597584  -2.5187416  -9.2437416  46.2837584
  -3.2517416  -8.5357416  45.1647584 -21.1107416  -7.0027416  46.2737584
 -21.7327416  -7.0527416  45.5467584 -21.0447416  -7.9017416  46.5947584
  -1.1807416  -2.0787416  41.8227584  -0.4027416  -2.4827416  42.2057584
  -1.4207416  -1.3867416  42.4387584   6.4112584   2.2002584  46.4577584
   6.5592584   2.7532584  45.6907584   6.6242584   1.3152584  46.1607584
   2.9302584  -2.4197416  48.7997584   2.0432584  -2.4377416  49.1587584
   3.3802584  -3.1417416  49.2367584  -6.1527416 -11.9967416  47.7197584
  -6.5207416 -12.4637416  46.9687584  -5.2487416 -12.3047416  47.7747584
  -4.4637416   4.1812584  46.6627584  -3.9407416   3.4342584  46.3707584
  -5.2097416   4.2002584  46.0637584 -18.0137416   4.2472584  45.8677584
 -18.4537416   5.0712584  46.0797584 -18.7267416   3.6292584  45.7077584
 -22.7757416 -15.2307416  47.9087584 -23.3537416 -15.6717416  47.2847584
 -22.0977416 -14.8287416  47.3647584 -10.7657416 -17.7767416  40.9287584
 -11.3577416 -17.0537416  40.7217584 -10.0907416 -17.7357416  40.2507584
   0.1652584   8.2052584  47.2997584  -0.4887416   8.5422584  47.9117584
   0.8372584   7.8132584  47.8587584   7.2252584 -12.2097416  47.9667584
   6.2892584 -12.3117416  48.1387584   7.3652584 -12.6547416  47.1317584
 -20.1697416 -12.6387416  49.2537584 -19.7467416 -12.4367416  50.0887584
 -21.0357416 -12.2377416  49.3207584 -16.7407416 -18.0607416  43.9547584
 -17.0937416 -17.1967416  44.1687584 -17.4307416 -18.4797416  43.4397584
  -2.6437416 -18.3167416  47.7937584  -2.0177416 -18.8827416  48.2467584
  -3.3777416 -18.2357416  48.4017584 -16.9197416 -11.2847416  45.9837584
 -17.1707416 -10.7287416  46.7217584 -16.9337416 -10.6997416  45.2267584
  -6.8547416  -5.6207416  41.2947584  -7.7367416  -5.9587416  41.4477584
  -6.4157416  -6.3127416  40.7997584  -0.6417416 -13.7977416  49.2547584
   0.2722584 -14.0817416  49.2227584  -0.6787416 -13.0417416  48.6687584
   1.5802584 -10.6677416  47.8577584   1.8882584 -10.2207416  48.6457584
   2.2922584 -10.5597416  47.2267584   1.6242584 -13.3327416  40.7857584
   2.1932584 -12.7327416  40.3037584   2.1432584 -13.5967416  41.5457584
  -2.3607416 -15.8407416  46.5707584  -2.1167416 -16.6267416  47.0587584
  -1.5257416 -15.4657416  46.2877584   0.2342584   4.1332584  48.3677584
  -0.5897416   4.5492584  48.1147584   0.2522584   3.3142584  47.8727584
 -21.6027416  -3.2337416  48.7787584 -21.0197416  -3.1057416  49.5277584
 -22.3927416  -3.6237416  49.1527584   1.9812584 -19.4507416  46.5187584
   1.3772584 -20.1937416  46.5317584   2.8512584 -19.8497416  46.5237584
   4.9592584  -7.9667416  44.4667584   4.9322584  -7.7237416  45.3917584
   5.0942584  -7.1387416  44.0047584   1.6982584 -17.7797416  48.9567584
   1.8592584 -18.4397416  48.2827584   2.5622584 -17.6027416  49.3307584
   5.0852584  -5.6057416  42.4337584   4.2562584  -6.0707416  42.3147584
   5.4632584  -5.5617416  41.5557584 -18.4007416 -10.6957416  41.6677584
 -19.1067416 -10.1227416  41.9667584 -17.6827416 -10.5317416  42.2797584
   4.4312584 -16.5957416  48.6807584   4.5842584 -15.6747416  48.8937584
   4.7542584 -16.6907416  47.7847584  -6.0207416  -3.1447416  42.3007584
  -6.0847416  -4.0357416  41.9567584  -5.3937416  -2.7097416  41.7237584
 -14.2927416  -2.6407416  45.3137584 -14.3617416  -3.5707416  45.5297584
 -14.9327416  -2.5087416  44.6147584 -21.8917416  -9.3677416  44.1327584
 -22.0397416  -8.7057416  43.4577584 -22.5617416 -10.0317416  43.9687584
   0.2142584 -13.1317416  44.1247584   0.4082584 -12.1957416  44.0697584
   0.6312584 -13.4157416  44.9387584  -4.4097416 -19.7987416  45.1267584
  -4.6347416 -20.5337416  45.6967584  -3.4537416 -19.7587416  45.1537584
 -21.8277416  -9.7817416  47.0857584 -22.0007416  -9.9967416  46.1687584
 -21.9687416 -10.6037416  47.5557584   0.2812584 -15.5207416  42.9057584
   0.3112584 -14.6027416  43.1747584  -0.2297416 -15.5177416  42.0967584
  -3.3767416   7.4522584  41.4887584  -2.4197416   7.4442584  41.4827584
  -3.6167416   6.9322584  42.2557584 -14.8837416 -20.6367416  47.6807584
 -14.4207416 -20.1617416  48.3707584 -15.1947416 -19.9537416  47.0867584
   3.2562584 -15.3637416  43.4927584   3.9692584 -15.0897416  42.9157584
   2.6692584 -15.8647416  42.9267584   2.6052584  -0.7507416  42.1517584
   2.6932584  -0.5657416  41.2167584   3.4172584  -1.2007416  42.3847584
   6.5982584 -11.7887416  41.8357584   6.9762584 -11.9487416  40.9717584
   6.0812584 -12.5737416  42.0207584  -1.0427416  -8.2047416  43.0037584
  -1.0327416  -7.8587416  42.1117584  -1.8507416  -8.7157416  43.0537584
   5.2242584   4.2042584  40.8207584   4.8452584   4.8182584  40.1907584
   5.9842584   4.6652584  41.1757584   5.9532584   6.6182584  43.6677584
   6.0692584   5.7192584  43.9757584   6.6712584   6.7562584  43.0507584
  -0.3737416   2.9052584  41.4387584  -1.1497416   2.8332584  41.9947584
  -0.3007416   2.0492584  41.0167584  -3.2497416  -2.3067416  45.4117584
  -2.9787416  -3.0647416  44.8947584  -3.2347416  -1.5767416  44.7927584
   4.1332584 -10.9947416  46.1677584   4.4902584 -10.1297416  46.3657584
   4.7362584 -11.3607416  45.5197584 -21.0927416 -16.8177416  44.8467584
 -21.4137416 -17.2347416  44.0467584 -21.7207416 -17.0767416  45.5207584
   3.9052584   7.3282584  41.8437584   4.7252584   6.9772584  42.1907584
   3.5252584   7.8172584  42.5737584   5.0822584 -18.6267416  41.4087584
   4.3322584 -19.1997416  41.5697584   4.7642584 -17.7497416  41.6197584
   1.1942584 -16.8587416  45.6907584   1.0782584 -17.0427416  44.7587584
   1.4412584 -17.7007416  46.0727584 -17.5287416 -10.0097416  48.1677584
 -17.9617416 -10.6427416  48.7417584 -17.2317416  -9.3167416  48.7567584
   4.6672584 -13.2697416  47.9967584   4.2722584 -12.5097416  47.5687584
   4.6462584 -13.9567416  47.3307584 -18.1677416 -13.3597416  40.9807584
 -18.2567416 -12.4237416  41.1597584 -17.2267416 -13.5257416  41.0357584
 -19.0207416 -18.4267416  46.1607584 -18.0667416 -18.3497416  46.1937584
 -19.3037416 -17.6817416  45.6307584  -4.2907416   4.1352584  41.3367584
  -4.1937416   5.0372584  41.6427584  -3.6097416   4.0342584  40.6707584
  -0.2597416  -5.9887416  44.9077584  -0.9177416  -5.4777416  44.4357584
  -0.3167416  -6.8647416  44.5267584  -0.8357416   8.1652584  44.9097584
  -1.3147416   8.9872584  45.0057584  -0.5137416   7.9702584  45.7897584
  -6.5697416 -18.9727416  47.6557584  -6.3087416 -19.8487416  47.3727584
  -5.7497416 -18.5457416  47.9017584  -2.4777416   2.5422584  43.4437584
  -3.2017416   3.0312584  43.0547584  -2.5567416   2.7042584  44.3837584
   4.3422584  -0.1507416  48.7457584   4.2102584   0.4332584  49.4927584
   3.5592584  -0.7007416  48.7287584  -1.6927416 -19.4547416  45.3587584
  -1.6957416 -18.9057416  46.1437584  -1.2457416 -18.9257416  44.6977584
 -20.7267416   6.7682584  44.1277584 -21.1587416   7.2092584  43.3967584
 -20.3397416   7.4782584  44.6407584  -5.3477416  -1.9507416  47.5527584
  -6.2357416  -2.2957416  47.6467584  -5.0857416  -2.2017416  46.6667584
  -2.8747416   1.9812584  46.0717584  -3.3477416   1.1492584  46.0887584
  -1.9607416   1.7402584  46.2227584  -1.2807416   5.4582584  44.5537584
  -0.9737416   5.1372584  43.7057584  -1.0057416   6.3752584  44.5767584
  -0.2407416   1.6172584  46.8687584  -0.2927416   0.8332584  47.4157584
   0.6772584   1.6642584  46.6017584   1.3052584   0.2602584  44.3547584
   1.9502584   0.8832584  44.6887584   1.6302584   0.0192584  43.4877584
   2.5162584  -5.0457416  44.3497584   2.6232584  -5.7017416  43.6607584
   1.6822584  -5.2677416  44.7647584  -3.0937416  -0.0257416  48.2107584
  -3.6887416  -0.6937416  47.8697584  -2.2957416  -0.5057416  48.4297584
   4.6642584   4.2702584  47.1267584   4.9512584   3.3672584  47.2567584
   4.5892584   4.3642584  46.1767584   2.7092584 -19.4247416  42.8937584
   1.8902584 -18.9317416  42.8487584   2.4722584 -20.2467416  43.3227584
   5.0312584  -5.0877416  45.5807584   4.3582584  -5.1207416  44.9007584
   5.4202584  -4.2167416  45.4917584   1.8212584   8.1472584  43.8847584
   0.8742584   8.0342584  43.9607584   2.1752584   7.7382584  44.6747584
   1.3482584   6.9032584  49.2907584   2.1802584   6.4302584  49.3057584
   0.7172584   6.2902584  49.6677584   4.8232584   6.7772584  48.2057584
   4.7602584   5.8252584  48.1247584   4.7482584   6.9422584  49.1457584
   5.8362584   1.8512584  42.7517584   6.7402584   2.1562584  42.8197584
   5.4232584   2.4582584  42.1377584  -7.3457416   1.8962584  43.6557584
  -6.8627416   1.7142584  42.8497584  -7.4407416   1.0412584  44.0757584
   2.3602584   3.5932584  42.4307584   1.4492584   3.3022584  42.4467584
   2.5812584   3.6392584  41.5007584  -1.6527416   5.6002584  47.1677584
  -1.3877416   5.3732584  46.2767584  -1.2707416   6.4642584  47.3197584
   5.8852584  -2.3647416  44.4817584   6.7532584  -2.7427416  44.3367584
   5.3552584  -2.6977416  43.7577584   4.5132584  -2.6757416  42.1617584
   5.0062584  -2.3907416  41.3917584   4.5402584  -3.6317416  42.1237584
 -22.6357416   4.3062584  44.2617584 -22.2037416   3.7642584  43.6007584
 -21.9627416   4.9272584  44.5397584  -0.8997416  -1.3007416  48.9057584
  -1.0147416  -2.2447416  49.0087584  -0.3947416  -1.2067416  48.0987584
   4.5502584 -20.3857416  46.8867584   4.8242584 -19.9027416  46.1067584
   5.2072584 -21.0747416  46.9857584   6.6982584 -11.9567416  44.5587584
   6.4302584 -12.1247416  43.6557584   7.5322584 -12.4167416  44.6517584
 -22.6777416 -21.2867416  46.7637584 -22.6727416 -21.3587416  45.8087584
 -22.1327416 -22.0147416  47.0617584  -5.0037416 -20.0677416  42.6347584
  -4.9887416 -20.2577416  43.5727584  -4.8107416 -20.9077416  42.2167584
  -1.5217416  -0.1247416  43.8227584  -0.6157416   0.0362584  44.0857584
  -1.8777416   0.7452584  43.6457584 -22.2557416   1.4672584  49.0057584
 -22.6207416   1.8722584  48.2197584 -22.9497416   1.5452584  49.6607584
   3.2722584   7.0902584  45.9467584   3.7112584   7.3802584  46.7467584
   3.7242584   6.2812584  45.7057584  -0.8077416   5.9812584  41.6377584
   0.1172584   6.0462584  41.4007584  -1.0787416   5.1232584  41.3107584
  -5.1937416  -0.8207416  43.8437584  -5.3917416  -1.6717416  43.4517584
  -5.0337416  -0.2447416  43.0967584 -19.0107416 -18.9257416  42.1557584
 -19.6477416 -18.4677416  41.6067584 -19.5377416 -19.5117416  42.6977584
   3.3512584   4.8382584  44.5287584   2.8602584   5.6472584  44.6717584
   3.0032584   4.4892584  43.7087584 -20.1027416  -0.4047416  41.1547584
 -20.9437416   0.0532584  41.1637584 -19.9167416  -0.5447416  40.2257584
   0.7862584  -1.1197416  46.7227584   1.6482584  -1.5187416  46.8417584
   0.8172584  -0.7357416  45.8467584  -0.4907416 -20.9627416  40.6397584
   0.0422584 -21.2397416  41.3847584   0.1452584 -20.7487416  39.9567584
 -21.9377416 -15.3487416  41.5247584 -21.6087416 -14.8947416  40.7487584
 -21.1937416 -15.3677416  42.1257584 -18.6857416  22.1092584  -5.6192416
 -18.7857416  22.8582584  -5.0322416 -18.1407416  21.4922584  -5.1312416
  -3.4047416  25.4382584 -15.9182416  -3.4997416  24.5602584 -15.5482416
  -4.1697416  25.5432584 -16.4832416 -15.8427416  35.7082584 -15.2472416
 -16.5477416  35.1512584 -14.9172416 -15.8177416  36.4472584 -14.6392416
 -16.0957416  27.1442584   2.0897584 -16.4227416  27.7992584   2.7077584
 -15.1537416  27.3072584   2.0447584 -10.9217416  20.4022584  -7.2992416
 -11.5167416  19.6792584  -7.1002416 -10.0497416  20.0102584  -7.2712416
 -16.9277416  15.4032584 -10.6792416 -17.3927416  14.6062584 -10.9322416
 -16.9037416  15.9302584 -11.4782416  -7.7017416  26.2622584  -3.7752416
  -8.5127416  26.0802584  -4.2502416  -7.0167416  26.2062584  -4.4422416
 -22.1707416  22.5072584 -10.8442416 -22.9937416  22.8272584 -11.2162416
 -21.8977416  21.8062584 -11.4352416  -3.9507416  27.0472584 -10.0962416
  -4.3377416  26.6062584  -9.3392416  -4.6577416  27.5902584 -10.4442416
 -13.7427416  17.1162584  -1.5542416 -14.3487416  16.6832584  -0.9522416
 -13.4127416  16.4102584  -2.1102416 -11.5807416  19.7822584 -13.6762416
 -12.1647416  20.2322584 -13.0662416 -11.1277416  19.1312584 -13.1402416
  -5.3397416  23.6612584  -1.4722416  -4.8587416  23.5782584  -0.6482416
  -4.6747416  23.5422584  -2.1502416  -0.7267416  17.9382584 -13.0442416
  -0.8157416  18.1722584 -13.9682416  -0.0677416  18.5452584 -12.7062416
 -17.1917416  22.1202584 -10.4302416 -17.0417416  22.1512584  -9.4852416
 -18.0527416  22.5202584 -10.5502416 -20.2737416  15.5972584   9.4667584
 -19.5327416  16.0092584   9.9127584 -19.9437416  15.3942584   8.5917584
  -9.8757416  33.9862584  -5.1822416  -8.9427416  33.7942584  -5.2712416
 -10.2827416  33.5552584  -5.9332416   5.2302584  13.9972584 -13.8312416
   4.2902584  14.1172584 -13.9672416   5.4092584  13.1132584 -14.1502416
  -4.4437416  29.7932584 -18.6992416  -5.0977416  30.4832584 -18.8132416
  -4.5277416  29.2512584 -19.4832416 -12.1217416  24.4182584 -12.7152416
 -11.6727416  25.2592584 -12.6312416 -12.9297416  24.5272584 -12.2132416
 -20.4177416  29.2042584 -15.5342416 -19.6247416  29.7402584 -15.5332416
 -20.1337416  28.3542584 -15.1982416  -4.8287416  22.8902584  -8.7152416
  -5.5547416  22.7982584  -9.3322416  -5.1027416  22.3902584  -7.9462416
 -13.1517416  32.4372584  10.8057584 -13.7587416  33.0282584  10.3607584
 -12.2837416  32.7812584  10.5947584  -9.2767416  23.1122584 -18.8452416
  -9.9057416  22.4112584 -18.6742416  -9.7287416  23.6972584 -19.4532416
  -5.8737416  30.4622584  -6.0132416  -5.5287416  31.3382584  -6.1822416
  -5.1437416  29.8742584  -6.2072416 -18.3747416  37.2202584   6.8537584
 -17.9087416  36.5432584   6.3627584 -19.0227416  37.5612584   6.2367584
 -11.0467416  31.5522584 -10.8372416 -11.1167416  32.3162584 -11.4082416
 -10.7307416  30.8522584 -11.4092416  -8.2757416  34.4832584 -17.4892416
  -7.6517416  34.4772584 -18.2152416  -7.8347416  33.9982584 -16.7912416
 -21.2177416  16.3022584 -14.2422416 -20.8937416  15.5142584 -14.6772416
 -20.4317416  16.7282584 -13.8992416 -18.4287416  10.1292584  -2.7422416
 -19.3597416  10.2662584  -2.9162416 -18.0387416  10.0052584  -3.6072416
  -5.8287416  22.8152584   9.0047584  -4.9867416  22.4172584   9.2257584
  -5.6657416  23.2802584   8.1837584 -11.7877416  10.6152584  -1.2342416
 -12.0497416  11.5362584  -1.2412416 -11.1147416  10.5622584  -0.5562416
  -7.6517416   9.1142584 -10.5082416  -8.0417416   9.8622584 -10.9602416
  -7.7167416   8.3942584 -11.1352416  -7.3877416  22.4692584  -6.2852416
  -7.9967416  22.4152584  -5.5482416  -7.9387416  22.6902584  -7.0362416
 -15.9317416  35.3602584  -9.6222416 -15.7147416  36.2432584  -9.3242416
 -15.7897416  35.3842584 -10.5682416 -10.5297416  17.5102584   7.5797584
 -10.9307416  18.2612584   7.1437584  -9.8207416  17.8862584   8.1017584
   5.7282584  24.0052584 -11.7372416   5.6422584  24.5832584 -12.4952416
   5.3812584  24.5152584 -11.0052416 -14.4527416  14.8182584 -15.8782416
 -13.7887416  15.3402584 -16.3282416 -14.8187416  15.4112584 -15.2212416
   1.5782584  17.8452584  -2.0152416   1.9142584  16.9522584  -2.0852416
   1.4842584  17.9932584  -1.0742416 -15.0127416  22.2042584 -12.2882416
 -15.6477416  21.9432584 -11.6212416 -14.4417416  21.4422584 -12.3872416
 -13.7207416  11.2412584  -7.0792416 -13.5407416  11.6972584  -7.9012416
 -13.0337416  11.5402584  -6.4822416  -6.9557416  22.4272584 -10.3692416
  -7.6417416  23.0002584 -10.7112416  -7.4047416  21.6052584 -10.1722416
 -15.1577416  25.7352584  -6.8782416 -15.6737416  26.3282584  -6.3312416
 -15.1927416  24.8952584  -6.4202416  -0.3517416  12.0392584 -16.7162416
  -1.1247416  12.0092584 -17.2802416  -0.0087416  12.9262584 -16.8272416
  -1.5777416  28.9352584  -4.4332416  -1.9307416  29.4722584  -3.7232416
  -0.8587416  29.4552584  -4.7932416 -15.5987416  16.6372584  10.4717584
 -15.4467416  17.1762584  11.2477584 -14.7417416  16.5752584  10.0507584
 -12.3967416  34.3182584   7.4147584 -12.4047416  34.7172584   6.5447584
 -13.1907416  34.6472584   7.8367584 -11.6147416  34.7312584 -17.8222416
 -11.5557416  35.6812584 -17.7202416 -11.1677416  34.3792584 -17.0532416
 -18.1197416  12.0452584  -7.0332416 -18.9727416  12.3842584  -7.3072416
 -17.5757416  12.8252584  -6.9262416  -9.6597416  20.7532584   7.6777584
  -9.2327416  20.4812584   6.8647584  -8.9447416  20.8382584   8.3077584
 -11.4407416  29.2512584  -6.4002416 -11.4617416  30.0202584  -6.9712416
 -10.5197416  28.9922584  -6.3812416  -7.2357416  12.9362584   3.8277584
  -6.6837416  13.5772584   3.3797584  -7.5397416  12.3532584   3.1327584
  -8.2737416  27.9602584 -11.5732416  -8.7857416  27.3952584 -10.9952416
  -8.8997416  28.6142584 -11.8852416 -17.8897416  22.5142584 -13.3262416
 -17.5637416  21.7152584 -12.9112416 -18.4107416  22.9422584 -12.6472416
 -10.8647416  13.3652584  -0.9492416  -9.9957416  13.7512584  -1.0562416
 -11.0407416  13.4262584  -0.0102416 -19.8067416  32.1552584 -14.3872416
 -20.2467416  31.5652584 -13.7752416 -19.0157416  31.6842584 -14.6492416
 -13.4157416  14.4322584  -5.8202416 -14.3387416  14.2552584  -5.6392416
 -13.2617416  14.0442584  -6.6812416 -16.3477416  27.4812584  -5.1692416
 -17.0097416  27.3902584  -4.4842416 -15.7167416  28.1052584  -4.8112416
 -10.0797416  13.1762584  -6.3452416  -9.2507416  12.7102584  -6.4572416
 -10.4367416  12.8352584  -5.5242416 -11.8877416  23.9492584  -7.4792416
 -12.7357416  23.5422584  -7.6552416 -12.0777416  24.8862584  -7.4242416
 -11.5287416  17.0862584 -10.0302416 -11.4657416  16.3772584  -9.3892416
 -12.1337416  17.7132584  -9.6362416 -15.4297416  37.2462584 -17.7002416
 -16.1257416  36.7212584 -18.0952416 -15.5197416  37.0942584 -16.7592416
  -7.1167416  27.0412584 -14.8312416  -6.9397416  27.0372584 -15.7712416
  -6.5587416  26.3472584 -14.4792416 -16.7997416   9.3142584 -14.9172416
 -15.9507416   8.9052584 -15.0862416 -16.6457416  10.2492584 -15.0492416
 -13.3947416  17.1552584 -12.8162416 -12.9057416  16.8892584 -12.0372416
 -12.7877416  17.7162584 -13.2992416 -11.8387416  26.8302584  -3.4142416
 -11.2037416  26.3172584  -3.9142416 -12.6677416  26.3672584  -3.5312416
 -13.7337416  18.5152584  -9.4012416 -13.4977416  18.7552584  -8.5052416
 -14.6667416  18.3042584  -9.3552416 -14.1437416  31.5192584 -13.6532416
 -13.6427416  31.1372584 -12.9322416 -13.5017416  31.6442584 -14.3522416
 -10.6157416  11.4612584 -12.7312416 -10.2237416  11.9412584 -12.0012416
  -9.9807416  10.7742584 -12.9362416 -20.0427416  18.7552584  -3.4412416
 -20.6087416  19.2272584  -4.0522416 -20.6487416  18.3022584  -2.8542416
 -19.0137416  14.3632584  -0.8342416 -18.2707416  13.8282584  -1.1122416
 -19.7647416  13.9882584  -1.2952416 -15.5417416  13.9212584  -8.6102416
 -16.1567416  14.4992584  -9.0622416 -15.1657416  13.3802584  -9.3042416
 -18.3167416  12.7492584 -10.7692416 -18.9877416  12.1112584 -10.5292416
 -18.0547416  12.5012584 -11.6552416  -4.6007416  19.6312584  -8.2882416
  -4.0167416  19.5922584  -9.0452416  -5.4777416  19.5282584  -8.6552416
 -10.1907416  11.1762584 -16.7342416 -10.5587416  11.5462584 -17.5362416
  -9.5317416  11.8132584 -16.4562416 -18.8107416  18.4662584  -0.1442416
 -18.1007416  17.9232584  -0.4882416 -18.6707416  19.3252584  -0.5432416
  -9.2017416  18.1272584 -16.2122416  -8.7247416  17.3802584 -15.8522416
  -8.5857416  18.8582584 -16.1492416 -12.1257416  19.7192584 -18.9052416
 -11.8437416  20.3992584 -19.5172416 -12.2127416  20.1732584 -18.0662416
 -16.6087416  37.2202584 -11.9882416 -17.1837416  37.7562584 -11.4432416
 -15.8677416  37.7912584 -12.1912416  -7.1677416  15.0462584 -10.3932416
  -7.1867416  15.0462584  -9.4362416  -6.2657416  15.2802584 -10.6142416
  -6.6437416  28.7622584  -9.5392416  -6.9097416  28.5382584 -10.4302416
  -7.0117416  28.0652584  -8.9962416  -3.9697416  28.1232584  -5.6912416
  -3.1537416  28.2422584  -5.2062416  -3.7637416  28.4052584  -6.5822416
 -15.4497416  23.3822584  -5.2742416 -16.0657416  23.0952584  -4.6002416
 -15.0947416  22.5692584  -5.6352416  -0.6477416  20.4152584 -10.6862416
  -0.6037416  21.3662584 -10.7782416   0.0112584  20.0832584 -11.2962416
 -21.2307416  10.2712584  -7.0012416 -21.1367416   9.8322584  -7.8462416
 -21.0257416  11.1882584  -7.1822416 -13.0087416  21.9972584   1.3217584
 -12.8947416  21.0472584   1.3097584 -12.5817416  22.3002584   0.5197584
 -16.9287416  19.5682584   8.9727584 -16.1217416  19.6432584   9.4807584
 -17.6107416  19.4102584   9.6257584 -10.1757416  21.5802584  -5.0462416
 -10.5437416  21.7722584  -5.9092416  -9.8247416  20.6932584  -5.1272416
 -12.6637416  16.9782584 -16.4342416 -12.0067416  17.0392584 -17.1272416
 -12.2127416  17.2872584 -15.6482416 -18.0997416  23.8542584   3.7477584
 -18.2427416  24.3342584   2.9317584 -17.8357416  24.5252584   4.3767584
 -19.8917416  24.8892584  -5.0172416 -19.2787416  25.5392584  -4.6752416
 -20.5617416  24.8092584  -4.3382416 -12.8337416  10.0552584 -10.2142416
 -11.9207416  10.2182584 -10.4512416 -12.7907416   9.6892584  -9.3312416
 -10.2907416  17.8262584 -12.3362416  -9.8827416  17.3902584 -13.0852416
 -10.1887416  17.2072584 -11.6132416  -2.1247416  22.9892584  -8.5222416
  -2.3367416  23.4062584  -7.6872416  -2.9757416  22.7902584  -8.9132416
  -4.5557416  19.2472584   8.2167584  -4.8667416  19.3072584   7.3137584
  -3.6077416  19.3612584   8.1527584 -17.7407416  20.6322584  -1.2352416
 -16.9747416  20.1502584  -1.5472416 -18.1177416  21.0202584  -2.0252416
 -18.3367416  15.4252584   1.7147584 -18.4307416  15.1512584   0.8017584
 -18.3467416  16.3812584   1.6807584  -6.0077416  17.2712584   2.5327584
  -6.6807416  16.6972584   2.1667584  -5.4227416  16.6822584   3.0087584
  -5.4727416   9.7492584  -2.0082416  -5.6607416  10.5992584  -1.6102416
  -6.2147416   9.1982584  -1.7602416 -18.4497416  33.0832584  -6.2472416
 -17.6247416  33.5152584  -6.4702416 -18.9327416  33.7342584  -5.7392416
 -16.7207416  23.2922584  -7.9372416 -17.3397416  23.8112584  -8.4502416
 -16.8107416  23.6262584  -7.0442416  -9.3657416  24.6072584 -10.8762416
  -9.4277416  24.3752584 -11.8022416 -10.0267416  25.2882584 -10.7542416
 -14.3047416  12.5722584 -10.7682416 -13.9437416  12.8882584 -11.5962416
 -13.8257416  11.7622584 -10.5912416 -13.5847416  38.3922584   0.1737584
 -13.6857416  37.7532584  -0.5312416 -13.0337416  39.0792584  -0.2022416
 -16.9087416  34.6072584  -3.5962416 -17.8297416  34.8352584  -3.7212416
 -16.5507416  34.5612584  -4.4822416 -18.6347416  16.4742584 -12.8222416
 -19.2067416  16.7652584 -12.1122416 -18.4837416  17.2602584 -13.3472416
  -1.8757416  16.5562584  -1.5272416  -2.3167416  16.8742584  -0.7392416
  -1.5107416  17.3432584  -1.9322416 -19.2597416  37.6292584  -4.9922416
 -19.3537416  37.1652584  -5.8242416 -18.7287416  38.3972584  -5.2042416
 -15.1607416  24.0232584 -18.8192416 -14.6687416  23.3402584 -18.3642416
 -14.6567416  24.8232584 -18.6692416 -13.0347416  11.3182584 -13.7392416
 -12.1857416  11.1692584 -13.3212416 -13.0067416  10.7892584 -14.5362416
 -13.7807416  24.8332584  -3.7702416 -14.0777416  24.4442584  -2.9482416
 -14.4037416  24.5152584  -4.4242416  -9.8147416  14.5132584   1.5247584
  -9.5397416  15.4272584   1.4537584  -9.3517416  14.1832584   2.2947584
  -8.8147416  18.4532584   9.7157584  -8.0877416  17.8932584   9.9877584
  -8.4527416  18.9882584   9.0087584  -7.7997416  15.5512584   8.6677584
  -7.5747416  15.4762584   9.5947584  -8.6567416  15.1312584   8.5937584
  -3.0307416  25.4552584 -12.5872416  -3.1807416  26.2302584 -13.1272416
  -3.6767416  25.5232584 -11.8842416   2.1202584  23.7542584  -9.7932416
   2.5092584  23.0212584  -9.3152416   2.5212584  23.7152584 -10.6612416
 -17.0647416  19.9842584  -7.0942416 -17.2967416  20.2032584  -6.1912416
 -16.2217416  20.4142584  -7.2352416  -7.4597416  16.2962584  -5.8102416
  -7.3007416  15.5762584  -6.4202416  -6.5867416  16.5622584  -5.5212416
  -8.8647416  36.1812584  -8.1752416  -9.1947416  36.0712584  -7.2832416
  -9.5937416  36.5772584  -8.6532416 -21.6067416  26.2462584  10.0687584
 -20.9017416  26.5322584  10.6487584 -21.1597416  25.8042584   9.3477584
 -20.3307416  21.8672584  -7.8632416 -19.8397416  21.7522584  -7.0492416
 -20.4137416  22.8162584  -7.9602416 -18.7257416  19.4062584  -9.1892416
 -19.4487416  20.0172584  -9.0522416 -18.1197416  19.5862584  -8.4692416
 -20.3367416  10.7032584  -9.8942416 -20.8857416  11.4412584 -10.1612416
 -20.9247416   9.9482584  -9.9132416 -19.7867416  24.5242584  -7.7842416
 -19.8317416  24.5942584  -6.8302416 -19.6977416  25.4282584  -8.0872416
 -10.2327416  22.6252584  -2.6392416 -10.1187416  22.1792584  -3.4792416
  -9.4137416  23.1032584  -2.5082416  -7.0957416  20.4972584   8.6447584
  -6.2587416  20.0372584   8.7177584  -6.8937416  21.4012584   8.8867584
 -13.3117416  24.3652584 -15.5062416 -13.0407416  24.2332584 -14.5972416
 -12.9007416  25.1912584 -15.7612416 -14.7617416  26.7182584  -2.1102416
 -14.9937416  26.0112584  -1.5082416 -14.5647416  26.2752584  -2.9352416
 -14.7867416   9.4852584  -5.3172416 -14.6197416  10.2382584  -5.8842416
 -14.2217416   9.6282584  -4.5562416 -10.4767416  31.8732584 -15.3482416
 -11.2357416  31.3572584 -15.6192416  -9.7317416  31.4402584 -15.7642416
 -18.9507416  36.7012584 -13.2702416 -19.2737416  37.5562584 -13.5552416
 -18.0667416  36.8732584 -12.9482416 -20.6837416  30.5652584  -1.5202416
 -19.9647416  30.2432584  -2.0622416 -20.4997416  31.4972584  -1.4052416
  -3.8157416  16.7812584 -13.4112416  -2.8977416  16.8122584 -13.1402416
  -3.9617416  15.8692584 -13.6602416 -17.0037416  24.5122584 -15.0682416
 -16.2117416  24.0762584 -15.3822416 -17.1887416  24.0952584 -14.2262416
  -7.1717416  20.0852584 -15.6572416  -6.3517416  19.6082584 -15.5342416
  -7.3427416  20.4932584 -14.8072416  -9.1857416  23.4922584  -8.1242416
  -9.9707416  23.8042584  -7.6742416  -9.3057416  23.7652584  -9.0332416
 -16.0717416  18.8432584  -2.4682416 -15.1357416  18.6462584  -2.5062416
 -16.4757416  18.0322584  -2.1592416 -13.7047416  28.1642584   2.7197584
 -12.9397416  27.8302584   2.2497584 -13.4597416  29.0542584   2.9747584
 -13.9187416  28.8502584 -17.7812416 -14.5237416  28.2122584 -17.4032416
 -14.0347416  29.6362584 -17.2472416  -9.3627416   8.9982584 -14.2552416
  -8.5457416   8.9772584 -13.7582416  -9.0887416   8.9442584 -15.1712416
 -14.6757416  25.7562584  -9.6962416 -14.6947416  26.6742584  -9.9692416
 -14.8097416  25.7852584  -8.7492416 -10.9457416  17.3052584 -18.5622416
 -11.3337416  18.1362584 -18.8342416 -10.0017416  17.4602584 -18.5882416
  -8.7517416  29.1402584   0.4847584  -9.6247416  28.9542584   0.8287584
  -8.6927416  28.6152584  -0.3142416 -14.0247416  23.2612584  -8.8682416
 -14.9077416  23.1062584  -8.5312416 -14.0767416  24.1202584  -9.2882416
   2.9692584  24.0112584  -3.7852416   3.7882584  23.8862584  -4.2642416
   3.0242584  23.3982584  -3.0522416  -8.0747416  13.4642584 -12.6442416
  -7.5187416  12.6882584 -12.7132416  -7.5387416  14.1032584 -12.1742416
  -8.0657416  26.8082584   9.4617584  -7.7827416  27.6832584   9.1927584
  -7.5457416  26.6172584  10.2417584  -8.0047416  23.9272584  -2.5192416
  -7.8937416  24.7352584  -3.0202416  -7.1337416  23.7402584  -2.1692416
 -15.0787416  21.6862584   7.3877584 -15.3067416  21.1692584   8.1607584
 -14.3807416  22.2692584   7.6847584   4.6462584  20.9152584  -6.7292416
   4.1612584  20.0952584  -6.6422416   5.5092584  20.6512584  -7.0482416
  -3.0027416  19.3872584 -10.5612416  -2.0997416  19.6962584 -10.6392416
  -3.5177416  20.0232584 -11.0582416  -9.1307416  20.4742584 -11.0692416
  -9.8487416  20.8812584 -10.5832416  -9.4157416  19.5712584 -11.2062416
 -18.3747416   8.4042584 -10.2282416 -17.8527416   8.7632584  -9.5112416
 -19.0987416   9.0222584 -10.3312416 -19.6087416  23.7212584 -11.3852416
 -20.2067416  23.8482584 -12.1212416 -20.0807416  23.1412584 -10.7892416
  -9.3147416  18.6822584  -3.9592416  -8.6887416  19.3962584  -3.8392416
  -8.7957416  17.9692584  -4.3342416 -16.4557416  20.9642584   1.4217584
 -17.0427416  21.0702584   0.6727584 -15.9987416  21.8022584   1.4887584
 -20.6127416  10.8672584  -4.3602416 -20.8207416  10.4492584  -5.1962416
 -20.0477416  11.6042584  -4.5952416  -2.4527416   9.6262584  -4.9862416
  -1.5617416   9.4992584  -5.3122416  -2.4787416  10.5432584  -4.7112416
  -9.8537416  26.6252584 -14.6692416  -9.9807416  26.9122584 -13.7652416
  -8.9207416  26.7612584 -14.8352416 -11.5987416  21.6652584  -9.7492416
 -11.3137416  21.6202584  -8.8372416 -12.3377416  22.2732584  -9.7402416
 -17.5177416  25.0312584 -18.1362416 -16.6087416  24.8352584 -17.9072416
 -17.7117416  24.4452584 -18.8672416 -16.8457416   9.7302584  -8.5412416
 -16.0977416  10.3252584  -8.4972416 -17.6047416  10.2842584  -8.3572416
  -8.7697416  17.7362584  -9.3482416  -9.7207416  17.6622584  -9.4302416
  -8.4297416  16.9532584  -9.7822416  -8.9657416  24.4272584   0.5347584
  -9.4237416  24.0402584  -0.2112416  -8.6537416  25.2732584   0.2107584
  -4.8807416  22.3292584  -5.2402416  -5.8337416  22.3492584  -5.1602416
  -4.5617416  22.5782584  -4.3722416  -4.8427416  13.2122584 -19.0462416
  -5.7547416  13.4802584 -18.9302416  -4.6087416  12.7932584 -18.2172416
 -16.7247416  20.1902584 -16.2542416 -17.5447416  20.6832584 -16.2912416
 -16.0867416  20.8122584 -15.9052416  -2.0217416  20.3942584  -1.7792416
  -1.4757416  19.6812584  -2.1102416  -1.8957416  21.1052584  -2.4082416
  -6.7107416  19.1812584  -9.7982416  -7.4997416  18.7922584  -9.4212416
  -6.4737416  18.5962584 -10.5172416 -10.9267416  20.3752584 -16.2402416
 -11.2107416  20.3972584 -15.3272416 -10.5227416  19.5142584 -16.3462416
 -12.2037416  26.6112584  -7.0622416 -13.1357416  26.4482584  -6.9192416
 -12.1227416  27.5652584  -7.0572416  -6.0047416  29.0012584  -3.4112416
  -5.2657416  28.4072584  -3.5422416  -6.0867416  29.4702584  -4.2422416
 -16.4247416  12.3122584 -13.1022416 -15.9827416  12.5952584 -12.3022416
 -16.0297416  12.8422584 -13.7952416  -4.9847416  19.1052584   5.3337584
  -5.7557416  18.6422584   5.0057584  -4.2477416  18.6892584   4.8877584
  -1.8137416  25.2512584 -17.8942416  -1.4567416  26.1252584 -18.0532416
  -2.4017416  25.3642584 -17.1482416   5.6752584  19.3692584  -9.7392416
   6.0892584  19.6092584  -8.9102416   6.0952584  19.9322584 -10.3892416
  -7.9077416  35.0032584 -10.5132416  -7.9707416  35.2592584  -9.5922416
  -7.9597416  34.0472584 -10.5002416 -16.3747416  17.6752584  -9.7122416
 -17.1527416  18.2302584  -9.7692416 -16.6137416  16.8772584 -10.1842416
  -4.8327416  18.6302584 -15.0402416  -4.2427416  19.3742584 -14.9152416
  -4.5807416  18.0072584 -14.3592416  -8.2427416  19.7662584  -6.8752416
  -7.4937416  20.3562584  -6.9642416  -7.9647416  18.9592584  -7.3092416
 -16.9117416  27.7832584  -8.8832416 -17.5747416  28.0282584  -8.2382416
 -17.3837416  27.2472584  -9.5202416 -12.2737416  13.2712584  -8.2952416
 -12.3597416  13.9422584  -8.9732416 -11.4267416  13.4492584  -7.8872416
 -14.4337416  31.8982584  -6.1942416 -13.6427416  32.3682584  -6.4582416
 -15.1527416  32.4322584  -6.5312416 -14.8047416  22.2352584 -15.0932416
 -14.1227416  22.8492584 -15.3642416 -14.8807416  22.3622584 -14.1472416
 -14.2147416  28.4422584  -7.7232416 -15.1147416  28.1172584  -7.7582416
 -14.3057416  29.3892584  -7.6152416 -14.3007416  37.9842584 -14.6602416
 -13.5467416  38.2502584 -15.1872416 -14.1447416  38.3802584 -13.8032416
 -18.7687416  35.6902584  -9.4272416 -17.8337416  35.4822584  -9.4252416
 -18.8067416  36.6212584  -9.6452416  -4.9497416  14.2312584 -13.0602416
  -4.0327416  14.0462584 -13.2622416  -5.4387416  13.8412584 -13.7842416
   2.0142584  15.8642584 -10.7702416   2.1242584  15.1652584 -11.4152416
   2.6922584  16.5022584 -10.9902416 -13.1567416  20.2762584 -11.5042416
 -12.4027416  20.7122584 -11.1072416 -13.5287416  19.7482584 -10.7982416
  -4.9657416  19.7672584   1.6927584  -5.2287416  18.9312584   2.0767584
  -5.7827416  20.2572584   1.5997584  -6.3997416  12.0632584  -0.3322416
  -5.6967416  12.7132584  -0.3352416  -6.6097416  11.9412584   0.5937584
 -11.1617416  16.5612584   4.2267584 -10.8867416  15.9282584   4.8907584
 -10.8757416  17.4072584   4.5707584  -4.4677416  17.0702584  -2.3642416
  -4.6117416  17.8852584  -1.8832416  -3.5517416  16.8502584  -2.1952416
 -14.9827416  18.1392584 -17.4782416 -14.1077416  17.8292584 -17.2462416
 -15.4367416  18.2282584 -16.6402416 -15.3397416  17.9882584   7.1087584
 -15.7277416  18.5852584   7.7487584 -14.9377416  18.5622584   6.4577584
  -9.3187416  16.7942584  -1.5982416 -10.2347416  16.9072584  -1.3422416
  -9.0887416  17.6142584  -2.0352416   4.3262584  21.9242584 -12.8042416
   3.4062584  22.1582584 -12.9262416   4.7242584  22.7082584 -12.4262416
 -17.4147416  18.2712584   2.1637584 -18.3187416  18.5182584   2.3577584
 -16.9247416  19.0912584   2.2187584  -7.1077416  22.0802584   2.1287584
  -7.8777416  22.6462584   2.0727584  -7.0617416  21.8282584   3.0507584
 -17.4307416  14.2852584 -14.8402416 -16.8687416  15.0272584 -15.0632416
 -17.6797416  14.4382584 -13.9282416  -1.3067416  29.3252584   2.2827584
  -1.2767416  30.2792584   2.2087584  -1.5897416  29.0272584   1.4187584
  -6.6077416  21.2182584   4.9467584  -5.8547416  20.8152584   5.3787584
  -7.2987416  20.5572584   5.0027584  -2.4987416  21.1162584   2.1397584
  -3.2407416  21.1412584   2.7427584  -2.7727416  21.6572584   1.3987584
   0.7802584  19.7102584 -16.0392416  -0.1117416  20.0562584 -16.0572416
   1.3052584  20.3782584 -16.4802416 -14.9267416  34.4622584   4.3307584
 -14.2777416  34.6642584   3.6567584 -15.7337416  34.2952584   3.8437584
  -4.3897416  23.2052584   1.3457584  -3.9667416  23.6262584   2.0947584
  -5.2817416  23.0262584   1.6437584  -7.8307416  23.5992584   4.5747584
  -7.1757416  24.1532584   4.1497584  -7.3197416  22.9322584   5.0327584
  -2.6797416  25.8482584  -2.1232416  -1.9497416  26.4512584  -2.2622416
  -2.5417416  25.5032584  -1.2412416  -5.0837416  17.4492584  -4.8492416
  -4.5987416  18.2742584  -4.8472416  -5.0437416  17.1452584  -3.9422416
  -5.7477416  12.7252584 -15.6862416  -5.4837416  11.8622584 -15.3672416
  -6.4737416  12.5472584 -16.2852416 -10.6637416  21.4842584   4.1007584
 -10.0107416  21.5912584   3.4087584 -10.9787416  22.3712584   4.2727584
 -13.5067416  13.1832584  -2.7012416 -14.3287416  13.2002584  -3.1912416
 -13.7757416  13.1442584  -1.7832416 -12.5217416  18.3212584  -6.7822416
 -11.9657416  17.5492584  -6.8902416 -12.6237416  18.4122584  -5.8342416
 -11.2867416  19.0892584   5.2527584 -11.0317416  19.9222584   4.8547584
 -12.0527416  18.8092584   4.7517584   6.0242584  15.7062584 -17.0922416
   6.0632584  15.4122584 -16.1822416   6.7332584  15.2312584 -17.5272416
  -9.9747416  14.5302584   6.4757584 -10.5847416  15.2342584   6.6937584
 -10.5167416  13.8662584   6.0497584  -0.7327416  17.8212584  10.1037584
   0.1532584  17.4612584  10.0507584  -1.3067416  17.0662584   9.9787584
  -4.9697416  14.2352584  -1.0282416  -4.0667416  14.0542584  -1.2912416
  -5.0207416  15.1902584  -0.9852416  -6.9107416  27.8412584   5.4857584
  -7.2187416  27.2722584   6.1907584  -5.9567416  27.8242584   5.5627584
 -10.4967416  26.2722584  -0.9052416 -11.2067416  26.2212584  -1.5452416
  -9.8467416  26.8442584  -1.3132416  -1.2297416  18.5272584  -5.8222416
  -2.0047416  18.9492584  -5.4512416  -1.1067416  18.9532584  -6.6702416
 -19.7637416  21.3072584   6.2287584 -19.2717416  21.1592584   5.4217584
 -20.0747416  20.4382584   6.4837584  -8.1267416  37.6732584   7.3207584
  -7.4337416  38.2062584   6.9297584  -8.4687416  38.2112584   8.0347584
 -17.1327416  32.0542584 -19.2982416 -16.7117416  32.3032584 -18.4752416
 -16.4227416  31.6992584 -19.8322416 -19.7787416  26.7022584 -17.9472416
 -19.6497416  27.6502584 -17.9182416 -18.9337416  26.3532584 -18.2282416
 -17.1427416  16.6092584  -1.1282416 -16.5437416  16.3132584  -0.4422416
 -17.6177416  15.8202584  -1.3882416 -16.8957416  14.6982584   3.7957584
 -16.9427416  13.7422584   3.7807584 -17.5487416  14.9812584   3.1567584
 -19.2517416  21.2162584 -16.1052416 -20.0847416  20.8482584 -15.8082416
 -19.3447416  22.1592584 -15.9692416 -10.7267416  10.7222584   6.2747584
 -10.9117416  10.7762584   7.2117584 -11.1317416  11.5062584   5.9037584
 -19.3337416  18.0372584   7.7667584 -19.0977416  17.1512584   7.4927584
 -18.7087416  18.2492584   8.4597584  -2.6907416  12.2712584  -4.3532416
  -2.1987416  12.9352584  -4.8362416  -3.5427416  12.2402584  -4.7882416
 -13.6567416  38.1232584   3.1237584 -12.8717416  38.6682584   3.1737584
 -13.6387416  37.7562584   2.2397584 -12.5167416  25.3562584   6.8557584
 -12.1937416  24.8182584   6.1317584 -12.2717416  26.2502584   6.6177584
 -17.1107416  14.9952584   8.5847584 -16.5337416  15.2182584   7.8547584
 -16.5767416  15.1412584   9.3657584 -13.7837416  18.5342584   4.0227584
 -14.4417416  19.1272584   4.3857584 -14.2697416  17.7382584   3.8067584
 -20.1707416  17.6222584  -6.7252416 -20.6817416  18.2432584  -6.2072416
 -20.8227416  17.0412584  -7.1152416 -12.6867416  10.1972584 -15.9682416
 -13.2367416  10.2682584 -16.7492416 -11.8327416  10.5282584 -16.2462416
  -7.2497416  33.9842584   6.9057584  -7.9847416  33.4312584   6.6417584
  -6.7167416  34.0682584   6.1147584 -15.6517416  15.5742584   6.1607584
 -16.1327416  15.4602584   5.3417584 -15.5327416  16.5202584   6.2397584
  -8.4957416  19.2542584   5.6197584  -9.3337416  19.1202584   5.1777584
  -8.1967416  18.3722584   5.8397584   1.9612584  14.5042584  -2.2342416
   1.0222584  14.4642584  -2.4162416   2.3752584  14.1752584  -3.0322416
 -17.6497416  19.9032584  -4.2622416 -18.4137416  19.4832584  -3.8682416
 -16.8997416  19.4572584  -3.8672416  -6.5017416  26.2802584  -0.7302416
  -6.3367416  26.9682584  -1.3762416  -6.1397416  25.4882584  -1.1262416
 -11.3837416   9.8482584   2.9837584 -11.0087416   9.7292584   3.8567584
 -10.6337416  10.0542584   2.4257584 -18.4327416  10.4692584   3.2117584
 -17.7617416  11.0212584   3.6147584 -19.0527416  11.0882584   2.8277584
 -15.0047416  24.9782584 -12.3162416 -15.1917416  24.0482584 -12.1912416
 -14.9737416  25.3392584 -11.4302416 -13.2607416  23.2792584   8.6107584
 -12.8377416  24.0442584   8.2197584 -13.7467416  23.6292584   9.3577584
 -21.0317416   9.0602584   9.5557584 -20.2317416   9.5062584   9.8337584
 -21.6987416   9.7472584   9.5477584 -10.0757416  20.6482584  -0.4222416
 -10.5777416  19.8582584  -0.6192416 -10.1547416  21.1852584  -1.2112416
 -19.7677416  36.3902584   9.1897584 -19.5407416  36.1962584   8.2797584
 -19.9017416  37.3372584   9.2067584 -13.9837416  27.7132584   9.4927584
 -13.7467416  27.1992584  10.2647584 -14.5787416  28.3852584   9.8247584
 -11.9947416  12.9442584   5.3257584 -12.8937416  13.0072584   5.6487584
 -12.0847416  12.8982584   4.3737584 -14.6477416  19.8422584  10.1367584
 -13.6997416  19.9722584  10.1447584 -14.8167416  19.2562584  10.8747584
 -15.3957416  16.6812584   3.1587584 -15.8027416  15.8232584   3.2767584
 -15.9087416  17.0972584   2.4657584 -16.8477416  10.9202584  10.2717584
 -17.4037416  10.8482584  11.0467584 -17.3317416  10.4622584   9.5847584
  -9.7727416  22.8362584 -16.1392416  -9.3767416  23.1112584 -16.9652416
 -10.2047416  22.0072584 -16.3442416  -8.1487416  10.0782584   4.9477584
  -7.5077416   9.9852584   5.6527584  -8.9157416  10.4642584   5.3707584
 -13.5867416  19.2662584   1.4207584 -14.5107416  19.4232584   1.2267584
 -13.5787416  18.9782584   2.3337584 -14.6177416  25.5872584   4.2097584
 -13.7377416  25.5022584   4.5757584 -14.8317416  26.5152584   4.3107584
 -15.5957416  16.4402584 -13.9942416 -16.1647416  17.1922584 -13.8292416
 -14.8377416  16.5832584 -13.4282416   7.3092584  16.5992584  -7.9582416
   7.3862584  15.6852584  -8.2332416   6.4872584  16.8982584  -8.3462416
  -1.7417416  18.0742584 -17.3662416  -1.2737416  17.4512584 -16.8112416
  -1.2617416  18.0652584 -18.1952416 -17.9117416  27.2872584 -12.8892416
 -17.5147416  28.1322584 -12.6762416 -17.3977416  26.9602584 -13.6272416
 -21.9287416  37.5672584 -18.1632416 -21.6287416  38.0792584 -18.9142416
 -21.7687416  36.6572584 -18.4132416 -15.8977416  13.0042584  -3.9092416
 -16.3797416  13.5562584  -4.5242416 -16.5247416  12.8192584  -3.2102416
  -7.5557416  16.7132584   5.9527584  -8.2697416  16.0802584   6.0237584
  -7.0847416  16.6382584   6.7827584  -6.6547416  25.2692584 -12.4672416
  -7.3597416  24.9752584 -13.0452416  -7.0967416  25.5112584 -11.6532416
 -21.1897416  18.0952584   5.8257584 -20.4807416  17.9712584   6.4567584
 -20.7537416  18.4022584   5.0317584  -7.3637416   8.5952584  -6.1512416
  -6.6987416   7.9452584  -5.9222416  -7.2187416   9.3142584  -5.5372416
   1.2202584  27.8142584   2.0297584   1.4782584  26.9302584   2.2917584
   0.3652584  27.9462584   2.4407584 -17.6917416  12.4402584   7.4927584
 -18.6197416  12.5752584   7.3017584 -17.4577416  13.1642584   8.0727584
 -18.2387416  21.1952584   3.9647584 -18.2797416  22.1412584   4.1067584
 -17.9227416  21.1022584   3.0657584  -8.1737416  31.5772584  -9.2142416
  -7.9857416  32.0422584 -10.0302416  -8.0507416  30.6532584  -9.4312416
  -7.4907416  20.4892584  -3.0462416  -7.8717416  21.2472584  -2.6022416
  -6.6337416  20.3762584  -2.6352416  -0.5137416  26.2452584   4.4277584
  -0.6237416  25.4602584   4.9647584  -0.0907416  26.8762584   5.0087584
 -13.0907416  25.6982584 -18.7362416 -12.3257416  25.3232584 -19.1722416
 -12.7287416  26.1952584 -18.0022416 -13.1637416  36.2612584   5.5917584
 -13.3497416  36.0112584   4.6867584 -12.4167416  36.8562584   5.5277584
 -15.5957416  20.2492584   5.0137584 -16.4367416  20.5702584   4.6857584
 -15.2467416  20.9752584   5.5297584 -22.6397416  17.2422584   0.9907584
 -22.9237416  16.4392584   1.4267584 -22.8257416  17.9372584   1.6217584
 -11.4417416  18.3642584  -0.6252416 -12.0557416  17.7062584  -0.9502416
 -11.5937416  18.3892584   0.3197584  -8.4197416  29.3692584 -18.3292416
  -9.2897416  29.6542584 -18.6082416  -7.9577416  29.1752584 -19.1442416
 -12.0297416  18.4012584  -4.0252416 -11.0967416  18.5942584  -4.1192416
 -12.0597416  17.6232584  -3.4692416 -19.2497416  15.6252584   6.6637584
 -18.4497416  15.1062584   6.7477584 -19.3957416  15.6892584   5.7197584
  -2.9787416  24.1832584  -6.2932416  -2.2197416  24.1352584  -5.7122416
  -3.5127416  23.4252584  -6.0542416 -21.8157416  22.6142584  10.2587584
 -21.2677416  23.3782584  10.0767584 -21.8577416  22.5712584  11.2137584
 -11.4607416  21.6282584   9.5037584 -12.1007416  22.1752584   9.0487584
 -10.9027416  21.2812584   8.8077584  -5.8437416  25.0482584   3.2497584
  -5.9997416  25.9712584   3.4507584  -4.9437416  25.0222584   2.9257584
   4.1232584  20.3422584 -17.5192416   4.1142584  20.9172584 -16.7532416
   4.8272584  19.7182584 -17.3442416  -6.9727416  11.7452584 -17.8872416
  -6.4137416  10.9692584 -17.9252416  -7.3177416  11.8362584 -18.7752416
 -21.9317416  11.8522584   4.5797584 -22.2507416  10.9752584   4.3687584
 -21.1687416  11.9732584   4.0137584  -8.9137416  28.1542584  -2.1302416
  -8.9867416  28.9592584  -2.6432416  -8.1017416  27.7482584  -2.4352416
 -12.2877416  15.6122584  -3.4532416 -12.2627416  14.7582584  -3.0212416
 -12.6657416  15.4342584  -4.3142416  -6.8957416  36.0792584   1.5497584
  -7.3457416  35.3812584   1.0737584  -7.5087416  36.3332584   2.2387584
  -7.2487416  12.6232584   6.7347584  -7.9437416  13.2812584   6.7457584
  -7.0157416  12.5352584   5.8107584  -5.1697416  38.5082584   3.2707584
  -5.3787416  37.8082584   2.6527584  -5.4987416  38.1912584   4.1117584
 -13.4287416  16.5182584   8.8767584 -14.0047416  16.6112584   8.1177584
 -12.6197416  16.9602584   8.6197584 -14.8597416  15.5312584   0.3557584
 -14.8827416  14.5752584   0.3287584 -14.0197416  15.7402584   0.7657584
  -5.9077416  38.3782584 -13.7022416  -6.0567416  37.6432584 -13.1062416
  -6.1907416  38.0542584 -14.5572416 -12.9767416  35.6632584 -13.9792416
 -13.8737416  35.8812584 -14.2332416 -12.4387416  35.9772584 -14.7062416
  -4.3777416  37.8302584   8.9487584  -4.8637416  37.0122584   8.8457584
  -4.0767416  37.8182584   9.8577584 -21.6847416  14.4882584  -9.7392416
 -22.1577416  14.7552584 -10.5272416 -20.8857416  15.0152584  -9.7482416
 -11.6547416  31.3412584   1.4027584 -11.6217416  30.3932584   1.5257584
 -12.2857416  31.4692584   0.6937584 -11.7197416  34.1412584 -12.0552416
 -11.9127416  34.6232584 -11.2522416 -12.0467416  34.7042584 -12.7572416
  -8.8397416  23.9662584 -13.5892416  -8.6887416  23.0282584 -13.7032416
  -9.4237416  24.2042584 -14.3092416 -20.6387416  13.1112584  -7.2902416
 -21.1147416  13.4522584  -8.0472416 -20.9627416  13.6252584  -6.5512416
 -13.0847416  36.5042584 -10.7642416 -13.3847416  36.4962584 -11.6722416
 -13.6597416  37.1322584 -10.3272416 -11.0787416  28.8222584   1.8907584
 -11.1857416  27.9492584   1.5137584 -10.4647416  28.6972584   2.6157584
   5.2462584  34.3242584  -7.1752416   5.4422584  35.1652584  -6.7622416
   4.2922584  34.3122584  -7.2552416  -8.9467416  15.1732584 -16.9102416
  -9.7387416  15.6362584 -17.1862416  -9.2557416  14.5282584 -16.2742416
 -17.8067416  37.9542584  -1.1362416 -17.6727416  38.1032584  -0.2002416
 -18.1917416  38.7702584  -1.4562416 -12.3007416  28.3012584 -13.2702416
 -12.9507416  27.9482584 -13.8772416 -12.8117416  28.8122584 -12.6422416
  -9.7157416  13.5602584 -14.7162416  -9.1237416  13.5512584 -13.9642416
 -10.4087416  12.9422584 -14.4832416 -19.4797416  33.0392584  -0.0122416
 -18.6007416  32.6632584  -0.0572416 -19.3897416  33.9072584  -0.4052416
 -22.7687416  29.9122584 -14.6812416 -21.8757416  29.5892584 -14.7972416
 -23.3167416  29.2712584 -15.1352416  -7.0457416  34.3162584 -14.6342416
  -7.1657416  33.5342584 -15.1742416  -7.8867416  34.4332584 -14.1912416
  -8.5887416  28.7632584  -6.1892416  -8.3457416  29.6502584  -6.4552416
  -7.7617416  28.3532584  -5.9352416  -5.1987416  29.9062584   2.0697584
  -5.6937416  30.6332584   2.4477584  -5.6017416  29.1222584   2.4427584
  -9.9637416  33.4072584   2.5227584 -10.3187416  32.6882584   1.9997584
  -9.4797416  33.9432584   1.8947584 -18.1287416  30.9242584  -2.7952416
 -17.5297416  31.6702584  -2.7642416 -17.5957416  30.1782584  -2.5192416
 -17.0087416  29.8312584 -12.6152416 -16.3527416  30.2142584 -12.0332416
 -17.8247416  29.8692584 -12.1162416  -5.3217416  36.1062584 -11.6402416
  -6.1677416  35.7232584 -11.4102416  -4.9347416  35.4832584 -12.2552416
 -20.4967416  27.2212584 -13.8562416 -21.1437416  27.0602584 -13.1682416
 -19.6517416  27.0862584 -13.4272416  -8.5007416  37.2162584 -12.0082416
  -8.0507416  36.5812584 -11.4522416  -8.8397416  36.6982584 -12.7382416
   1.5122584  33.1502584  -5.2742416   2.0902584  32.4172584  -5.4822416
   1.7422584  33.8262584  -5.9122416 -16.3107416  27.3382584 -17.0002416
 -16.9027416  27.9532584 -17.4332416 -16.8097416  26.5232584 -16.9452416
 -16.9547416  35.8222584  10.5587584 -17.5507416  35.9852584   9.8267584
 -17.4447416  35.2432584  11.1427584  -6.3697416  27.5012584   1.8627584
  -6.3027416  26.7902584   1.2257584  -7.1127416  28.0242584   1.5617584
 -15.5417416  31.5232584 -15.9882416 -15.2337416  32.2862584 -16.4762416
 -15.1607416  31.6262584 -15.1162416 -12.4307416  31.9122584  -2.2622416
 -13.1787416  31.6412584  -1.7302416 -12.2927416  31.1852584  -2.8702416
  -7.3617416  33.5352584  -5.3662416  -6.5607416  33.6452584  -5.8782416
  -7.7257416  32.7022584  -5.6662416 -13.6397416  13.8722584 -13.6322416
 -13.9557416  14.1052584 -14.5052416 -13.3877416  12.9522584 -13.7052416
 -18.5337416  28.5812584  -6.8112416 -18.9627416  29.3902584  -6.5342416
 -17.7727416  28.5042584  -6.2352416 -19.5597416  23.9182584 -16.1702416
 -19.1707416  24.5762584 -16.7462416 -19.0067416  23.9262584 -15.3892416
 -18.6277416  26.2152584 -10.4512416 -18.5757416  26.5962584 -11.3272416
 -19.2147416  25.4662584 -10.5492416 -11.6427416  37.7972584  -5.2812416
 -10.8467416  37.4562584  -4.8732416 -11.9777416  38.4402584  -4.6552416
 -11.5357416  37.8582584 -18.6262416 -11.6627416  37.5352584 -19.5182416
 -12.0807416  38.6442584 -18.5762416 -12.6427416  22.7702584  -1.4472416
 -13.1007416  21.9332584  -1.5272416 -11.8697416  22.6752584  -2.0032416
 -16.1017416  33.3012584 -12.3562416 -15.4927416  32.8182584 -12.9142416
 -16.7547416  33.6532584 -12.9612416 -22.0257416  26.2122584 -16.3102416
 -21.4317416  26.2672584 -15.5612416 -21.5007416  26.5032584 -17.0552416
 -15.8937416  34.4902584  -6.3632416 -16.0457416  35.4262584  -6.2352416
 -14.9457416  34.3882584  -6.2792416 -12.8377416  33.9392584  -7.8652416
 -12.7457416  34.6382584  -7.2172416 -13.2757416  34.3572584  -8.6072416
  -9.9507416  10.4862584  -9.7722416  -9.1727416   9.9902584  -9.5162416
 -10.1677416  11.0082584  -9.0002416 -11.9007416  30.7062584 -17.4352416
 -11.9357416  29.8222584 -17.8012416 -12.3727416  31.2472584 -18.0682416
 -22.1917416  23.1772584 -16.9472416 -22.8207416  23.8882584 -16.8282416
 -21.3407416  23.5772584 -16.7702416  -6.9537416  32.3172584 -11.4412416
  -6.8927416  32.2072584 -12.3902416  -6.0497416  32.4442584 -11.1552416
 -15.1287416  24.0712584  -1.1532416 -15.4257416  24.0402584  -0.2442416
 -14.3517416  23.5122584  -1.1722416 -18.4417416  30.9962584  -8.4752416
 -18.9807416  31.4462584  -7.8242416 -17.7507416  31.6232584  -8.6892416
 -11.1767416  31.6932584  -8.1552416 -10.8927416  31.6872584  -9.0692416
 -11.8567416  32.3662584  -8.1192416 -19.4987416  30.7832584  -5.2062416
 -19.1617416  31.5392584  -5.6872416 -18.9887416  30.7662584  -4.3962416
  -2.7207416  11.4662584 -17.9622416  -2.3737416  10.7822584 -18.5352416
  -3.5817416  11.1422584 -17.6972416  -3.5857416  37.3362584 -10.0732416
  -4.1247416  37.7242584  -9.3842416  -4.2087416  37.0962584 -10.7592416
 -21.8147416   8.4292584   6.3567584 -21.0297416   8.5002584   5.8137584
 -21.5647416   8.8232584   7.1927584 -22.0247416  25.1212584  -3.4632416
 -22.6287416  24.6872584  -2.8602416 -22.4997416  25.8962584  -3.7622416
 -16.0677416  32.6122584  -9.3952416 -15.9677416  33.5202584  -9.1102416
 -15.9377416  32.6422584 -10.3432416 -11.4977416  27.6542584   5.9597584
 -10.7667416  27.7652584   5.3517584 -11.3267416  28.2862584   6.6577584
 -19.4757416  27.8072584  -1.1792416 -20.3647416  28.0002584  -0.8802416
 -18.9117416  28.1112584  -0.4692416 -19.7007416  30.3802584 -11.2002416
 -19.3877416  31.1372584 -10.7042416 -20.6547416  30.4572584 -11.1792416
  -7.3697416  31.6882584   0.6287584  -6.8007416  31.5462584  -0.1272416
  -7.8057416  30.8472584   0.7627584 -15.7447416  29.8842584 -10.1032416
 -15.5437416  30.6462584  -9.5592416 -16.2577416  29.3112584  -9.5332416
 -10.3227416  34.4542584   9.8537584 -10.6477416  34.4102584  10.7527584
 -11.1057416  34.5962584   9.3217584 -10.7407416  37.3212584  -9.6762416
 -11.5787416  36.9732584  -9.9822416 -10.2857416  37.5872584 -10.4752416
 -11.5367416  34.5292584  -2.8542416 -10.9127416  34.4592584  -3.5762416
 -11.5367416  33.6602584  -2.4512416 -11.9407416  26.9062584 -16.6162416
 -12.1347416  27.8382584 -16.5112416 -11.2447416  26.7332584 -15.9812416
  -9.1627416   8.8772584 -17.5332416  -9.9437416   8.6542584 -18.0392416
  -9.1577416   9.8342584 -17.5072416 -19.6327416   9.0172584 -14.8062416
 -18.6777416   9.0842584 -14.8122416 -19.9287416   9.8422584 -14.4222416
 -13.3857416  29.8892584 -11.4062416 -13.9897416  29.9162584 -10.6642416
 -12.5957416  30.3272584 -11.0882416   6.0482584  32.3472584  -8.9182416
   5.3262584  31.7242584  -9.0082416   5.7392584  32.9812584  -8.2712416
 -13.0007416  24.3102584   2.4137584 -13.9107416  24.5852584   2.5217584
 -13.0577416  23.4012584   2.1197584 -14.8127416  29.7562584  -4.7202416
 -13.9147416  29.7662584  -4.3892416 -14.8287416  30.4362584  -5.3932416
   2.6572584  33.6052584 -10.7972416   1.7702584  33.8532584 -11.0562416
   3.0942584  33.3842584 -11.6202416   1.6692584  29.2622584  -0.3562416
   2.5132584  29.5262584  -0.7232416   1.8952584  28.6702584   0.3617584
 -14.5657416  28.1592584   5.8827584 -14.7587416  27.6192584   6.6497584
 -13.6107416  28.1582584   5.8227584  -9.8557416   9.7392584  -6.8452416
  -9.2327416   9.0392584  -6.6482416 -10.6997416   9.3982584  -6.5502416
   7.0362584  35.3302584 -10.4312416   6.4302584  34.6322584 -10.6842416
   7.6252584  34.9182584  -9.7992416  -9.5327416  34.4552584 -13.8162416
  -9.7287416  34.2892584 -12.8942416 -10.2937416  34.1182584 -14.2882416
  -8.8387416  31.6302584  -6.6292416  -9.7457416  31.5522584  -6.9272416
  -8.3317416  31.7462584  -7.4322416 -14.8407416  31.6352584   5.2197584
 -14.1757416  31.1352584   4.7467584 -14.8517416  32.4892584   4.7857584
   6.0122584  37.3972584   0.1677584   6.5432584  37.2322584   0.9467584
   5.1102584  37.2732584   0.4617584 -15.6067416  10.6192584   0.4167584
 -15.0547416   9.8532584   0.2597584 -16.3577416  10.2782584   0.9037584
  -6.1407416  20.7172584 -18.1832416  -6.6627416  21.4722584 -18.4562416
  -6.5747416  20.3992584 -17.3912416 -11.3627416  24.2982584   4.5637584
 -10.7187416  24.8232584   4.0877584 -12.0207416  24.0722584   3.9067584
  -8.3057416  21.2862584 -13.5082416  -8.4337416  21.1082584 -12.5762416
  -9.1887416  21.2752584 -13.8782416 -11.9107416  28.1842584  -9.4432416
 -12.7027416  28.2412584  -8.9092416 -11.1967416  28.3672584  -8.8322416
  -3.7807416  23.1322584 -13.7742416  -3.6277416  23.9752584 -13.3482416
  -3.9847416  22.5342584 -13.0552416 -16.0377416  36.9072584  -5.1472416
 -15.4467416  37.6402584  -4.9732416 -16.8427416  37.1322584  -4.6812416
 -13.0367416  31.0352584   7.2997584 -13.5237416  31.0732584   6.4757584
 -13.0737416  31.9282584   7.6417584   4.5462584   8.7442584  -6.5472416
   4.7032584   8.1072584  -5.8502416   5.1302584   9.4742584  -6.3412416
 -10.6937416  26.7832584 -11.6432416 -11.0617416  27.0112584 -10.7892416
 -11.2417416  27.2522584 -12.2732416   1.8562584  28.0092584  -6.8952416
   2.0982584  27.3002584  -6.3002416   1.3842584  27.5752584  -7.6062416
 -21.3527416  38.1452584  -3.4872416 -21.3737416  39.0962584  -3.3762416
 -20.5217416  37.9742584  -3.9302416 -15.9737416  28.9762584  -1.4902416
 -15.3557416  28.2792584  -1.7092416 -16.5317416  28.5982584  -0.8102416
   2.4132584  23.3002584 -18.0272416   2.5112584  22.5202584 -18.5742416
   1.6302584  23.7352584 -18.3682416  -3.9387416  36.0442584 -16.0312416
  -3.0797416  35.7622584 -15.7182416  -4.5537416  35.7112584 -15.3782416
 -14.4487416  12.6122584 -17.5202416 -14.3577416  13.2552584 -16.8172416
 -15.2697416  12.1582584 -17.3262416 -11.6047416  37.1972584 -15.9112416
 -11.5947416  38.0282584 -15.4352416 -11.2017416  37.4002584 -16.7562416
 -16.6737416  31.9402584   0.7197584 -16.4797416  31.7232584  -0.1922416
 -15.8467416  32.2762584   1.0677584 -12.5957416  36.8682584  -7.4182416
 -11.7987416  36.7302584  -7.9302416 -12.2837416  37.0382584  -6.5292416
  -5.4187416  30.7982584   8.0457584  -5.1677416  31.3072584   8.8167584
  -4.6857416  30.9052584   7.4387584 -21.1257416  36.8842584 -11.7982416
 -20.4567416  36.3752584 -12.2542416 -21.9107416  36.3382584 -11.8362416
   3.1172584  31.1952584  -6.1762416   2.9212584  31.1782584  -7.1132416
   3.2752584  30.2802584  -5.9462416  -3.4967416  35.1112584  -5.3482416
  -3.1957416  35.3092584  -4.4612416  -3.4447416  34.1572584  -5.4122416
 -19.4527416  33.1432584 -10.3142416 -19.0507416  33.9792584 -10.0792416
 -20.2887416  33.3832584 -10.7152416 -21.3937416  35.1892584 -18.9842416
 -20.6177416  35.5022584 -19.4492416 -21.5717416  34.3302584 -19.3662416
   6.8022584  36.3022584  -4.0572416   7.2982584  35.5682584  -4.4212416
   7.4582584  36.9812584  -3.8992416  -0.4407416  23.0642584 -10.6922416
  -1.0667416  23.1002584  -9.9692416   0.3312584  23.5262584 -10.3642416
 -21.2947416  27.4942584  -5.7742416 -21.9847416  27.8792584  -6.3142416
 -20.8017416  26.9372584  -6.3772416 -18.8617416  35.3012584  -1.2342416
 -19.0437416  35.2542584  -2.1722416 -18.3537416  36.1062584  -1.1292416
  -9.5267416  30.4862584  -3.7682416 -10.4787416  30.3932584  -3.7432416
  -9.2867416  30.2602584  -4.6662416  -9.8507416  29.8002584 -13.0162416
  -9.3207416  30.2402584 -13.6812416 -10.4037416  29.1952584 -13.5112416
 -19.3657416  14.6152584 -17.4752416 -18.8037416  15.2822584 -17.8702416
 -18.8307416  14.2332584 -16.7792416  -5.7947416  32.0322584 -19.2812416
  -5.3397416  32.8022584 -18.9402416  -6.6657416  32.3522584 -19.5172416
 -15.6117416  30.9092584   8.7327584 -16.1987416  30.7992584   7.9847584
 -14.7327416  30.8342584   8.3597584  -4.5477416  21.0322584 -11.9442416
  -5.0997416  20.4042584 -12.4102416  -5.1477416  21.4842584 -11.3512416
 -22.6697416  11.9932584 -13.5432416 -22.8147416  11.0792584 -13.7852416
 -22.7337416  12.0012584 -12.5882416  -7.4667416  29.2872584   8.7537584
  -8.0987416  29.9632584   8.5117584  -6.6267416  29.6182584   8.4337584
   3.5692584  31.5822584   2.7667584   3.1002584  32.2752584   2.3027584
   4.4352584  31.5642584   2.3597584 -14.1107416  13.3702584   6.8387584
 -14.2407416  13.2692584   7.7817584 -14.8397416  13.9212584   6.5527584
 -17.7517416   9.4342584   8.2367584 -17.5697416  10.2432584   7.7597584
 -17.8827416   8.7772584   7.5527584 -10.1907416  30.4832584   5.1467584
 -10.0937416  30.2042584   6.0577584  -9.6667416  29.8572584   4.6467584
 -18.0587416  34.8642584 -17.2992416 -17.9757416  34.1432584 -16.6752416
 -18.8787416  35.2952584 -17.0612416 -13.5307416  34.8972584  -4.6772416
 -13.0757416  34.6912584  -3.8612416 -13.6977416  35.8392584  -4.6282416
   0.5652584  37.7882584  -2.4092416   0.5012584  36.8332584  -2.3942416
   0.1882584  38.0402584  -3.2512416  -6.5507416  31.8832584   3.0777584
  -6.9017416  31.9872584   2.1937584  -7.3107416  31.9902584   3.6517584
 -15.8117416  24.4292584   1.3537584 -16.3857416  24.1712584   2.0757584
 -15.8127416  25.3862584   1.3777584  -6.3957416  36.3652584  -3.3402416
  -6.0137416  36.8872584  -2.6362416  -5.8247416  36.5222584  -4.0932416
  -8.6647416  32.5932584   4.7037584  -9.1757416  31.8122584   4.9137584
  -9.2247416  33.0942584   4.1107584  -9.2687416  25.4312584   2.9657584
  -8.7057416  24.8212584   3.4427584  -9.3777416  25.0322584   2.1027584
  -9.3237416  27.9142584   4.1437584  -9.2047416  27.1052584   3.6457584
  -8.6107416  27.9112584   4.7817584 -17.2887416  29.2982584 -18.7462416
 -18.1937416  29.3372584 -19.0562416 -16.9377416  30.1712584 -18.9202416
 -18.8867416  32.1672584   8.5237584 -19.0317416  31.2312584   8.3837584
 -18.1997416  32.2072584   9.1887584   0.5342584  33.8022584   6.8887584
   1.0672584  34.2192584   6.2107584  -0.1627416  34.4332584   7.0667584
  -1.7067416  35.6312584   6.8977584  -2.0547416  35.7732584   6.0177584
  -1.4567416  36.5042584   7.2007584  -8.1087416  34.2182584   0.2627584
  -7.9787416  34.2282584  -0.6862416  -8.1697416  33.2902584   0.4867584
 -11.1487416  37.9222584   5.7427584 -11.2867416  38.7102584   6.2687584
 -10.2127416  37.7392584   5.8257584 -17.1797416  33.9662584   2.6867584
 -16.6717416  34.3612584   1.9777584 -17.5397416  33.1652584   2.3067584
 -14.3467416  10.9882584   5.5487584 -14.7147416  10.2462584   6.0277584
 -14.3377416  11.7032584   6.1847584 -19.2367416  29.4072584   8.5507584
 -20.1107416  29.2942584   8.1777584 -18.6427416  29.0952584   7.8697584
   1.7142584  25.4352584   3.0087584   2.3142584  24.7412584   3.2817584
   0.8862584  25.2212584   3.4377584 -11.1087416  28.5132584  10.3927584
 -11.9967416  28.3332584  10.0837584 -10.7977416  27.6752584  10.7327584
 -12.1697416  29.5092584  -3.6322416 -11.7557416  28.7602584  -3.2042416
 -11.9177416  29.4302584  -4.5522416 -15.0057416  26.0412584   7.5857584
 -14.8557416  26.5272584   8.3967584 -14.1357416  25.7472584   7.3167584
  -8.1127416  36.0352584  10.0737584  -9.0107416  35.7952584  10.3007584
  -8.2037416  36.6272584   9.3267584  -8.2047416  37.2382584   4.1297584
  -7.6577416  36.7972584   4.7807584  -8.1577416  38.1642584   4.3647584
 -14.7947416  34.0472584   9.7287584 -15.4597416  34.4322584  10.2997584
 -15.2377416  33.9302584   8.8887584  -5.5707416  34.2742584   4.8497584
  -4.8147416  34.1912584   4.2687584  -6.1627416  33.5742584   4.5747584
  -6.4237416  33.4622584  -2.8572416  -6.8257416  33.4132584  -3.7242416
  -6.1127416  34.3642584  -2.7872416 -22.9087416  34.1262584   3.5747584
 -23.0217416  33.3302584   4.0937584 -21.9687416  34.1662584   3.3977584
 -14.0737416  33.7202584 -16.5962416 -13.3537416  33.7902584 -17.2222416
 -14.5137416  34.5692584 -16.6412416 -17.3207416  25.4622584   6.0787584
 -17.4297416  24.5552584   6.3667584 -16.4627416  25.7192584   6.4167584
 -12.8877416  11.9882584   2.4437584 -13.6917416  11.8952584   2.9547584
 -12.2977416  11.3242584   2.7997584 -11.4687416  37.3862584   8.5177584
 -12.4187416  37.3802584   8.3997584 -11.1157416  37.2312584   7.6417584
 -14.3227416  21.0912584  -6.6052416 -14.0487416  21.6452584  -7.3352416
 -13.5577416  20.5472584  -6.4162416 -17.9377416  30.4402584 -14.8872416
 -17.3227416  30.7712584 -15.5422416 -17.4187416  30.3692584 -14.0852416
 -21.6227416  32.3022584 -17.0982416 -21.1027416  31.8062584 -17.7302416
 -21.1847416  32.1562584 -16.2602416 -21.5307416  29.3552584   2.9457584
 -21.2807416  28.6872584   2.3077584 -20.8447416  30.0192584   2.8797584
 -15.3937416  34.6362584   0.6767584 -15.3817416  35.0832584  -0.1692416
 -14.5647416  34.8812584   1.0887584 -11.9617416  10.6252584   8.7487584
 -12.8417416  10.4262584   8.4287584 -12.0857416  10.8442584   9.6717584
 -10.6457416  29.5282584   7.7917584 -11.4527416  30.0232584   7.6477584
 -10.3677416  29.7742584   8.6737584  -1.1607416  34.2922584  -0.1322416
  -0.9227416  33.9232584  -0.9822416  -1.6687416  33.6012584   0.2947584
 -20.8967416  34.4772584   7.0577584 -21.7767416  34.8152584   6.8957584
 -20.9967416  33.9012584   7.8157584   3.6942584  31.8442584 -15.4902416
   4.4612584  31.7302584 -16.0512416   3.3462584  32.7022584 -15.7312416
 -10.6997416  36.7712584   2.7717584  -9.9437416  36.7822584   3.3587584
 -10.8927416  37.6952584   2.6117584 -15.9017416  38.0932584   5.0217584
 -15.4017416  37.5592584   5.6387584 -15.2697416  38.3342584   4.3447584
  -6.9277416  10.5382584   2.3187584  -7.2917416  10.3902584   3.1917584
  -6.0237416  10.2302584   2.3807584 -13.9117416  30.1052584   0.4767584
 -14.5757416  30.0252584  -0.2082416 -13.8207416  29.2192584   0.8277584
  -3.4657416  27.8332584   0.9567584  -3.7777416  27.5462584   0.0987584
  -4.2627416  28.0222584   1.4517584  -5.7047416  24.1592584   6.5267584
  -5.0317416  24.8392584   6.4847584  -6.5127416  24.6332584   6.7217584
  -9.7417416   9.9882584   0.6197584  -8.8417416  10.0382584   0.9427584
  -9.8667416   9.0652584   0.3997584 -14.5537416   9.7012584   8.7627584
 -15.2107416   9.8422584   9.4447584 -14.6177416   8.7672584   8.5587584
 -12.6707416  30.4482584   3.7857584 -12.5107416  30.9332584   2.9757584
 -11.8107416  30.3832584   4.2007584  -4.3197416  16.4622584 -17.7732416
  -3.6067416  16.8162584 -17.2422416  -4.7557416  17.2342584 -18.1352416
  -7.6747416  25.6952584   7.0157584  -7.5657416  26.1262584   7.8637584
  -8.2617416  24.9612584   7.1937584 -15.5277416  34.8452584   6.9147584
 -16.4527416  34.7192584   6.7017584 -15.0867416  34.8602584   6.0657584
  -8.3537416  29.3442584 -15.6022416  -8.4387416  29.2012584 -16.5452416
  -7.7837416  28.6362584 -15.3032416 -15.6667416  35.9812584  -1.6962416
 -15.9777416  35.7102584  -2.5602416 -16.2657416  36.6802584  -1.4342416
  -7.0087416  37.1572584 -16.1272416  -7.1447416  36.2312584 -16.3272416
  -7.6767416  37.6142584 -16.6382416 -13.7207416   9.6102584 -18.2052416
 -14.4047416   8.9402584 -18.2292416 -14.1337416  10.3882584 -18.5782416
 -14.7737416  37.6022584  -8.8432416 -14.1947416  37.2802584  -8.1532416
 -15.2957416  38.2832584  -8.4192416  -9.9737416  25.2952584  -5.5152416
 -10.3417416  24.4152584  -5.4432416 -10.6127416  25.7802584  -6.0382416
 -14.3837416  37.0212584   8.4167584 -14.7097416  36.4372584   7.7317584
 -14.7857416  36.6942584   9.2217584  -9.6847416  23.6692584   6.9787584
  -9.8067416  22.7202584   6.9557584  -9.6037416  23.9222584   6.0587584
 -17.3047416   8.6102584   1.5167584 -17.6547416   9.2372584   2.1497584
 -17.4427416   7.7552584   1.9257584  -8.1357416  16.2302584 -14.0252416
  -7.4437416  16.1092584 -14.6752416  -8.4067416  15.3412584 -13.7962416
 -10.5637416  14.7802584 -11.5032416  -9.7427416  14.3532584 -11.7462416
 -11.2297416  14.3362584 -12.0282416 -12.0327416  14.6452584  10.5857584
 -11.6857416  15.3232584  11.1647584 -12.6527416  15.1062584  10.0197584
   2.1542584  23.5512584 -12.9652416   1.2652584  23.7782584 -13.2392416
   2.6852584  24.3042584 -13.2232416  -3.4297416  15.9802584  -6.5882416
  -3.2427416  16.4132584  -7.4212416  -3.8267416  16.6622584  -6.0462416
   0.6302584  16.5342584  -4.7802416   0.2562584  16.9022584  -5.5812416
   0.2642584  15.6512584  -4.7282416   4.6722584  12.4282584  -8.7272416
   4.5302584  12.7282584  -9.6242416   4.9072584  11.5042584  -8.8162416
   1.0352584  16.3452584  -8.2472416   0.4582584  16.9192584  -8.7502416
   1.6962584  16.0582584  -8.8772416   1.3332584   9.7842584  -8.4382416
   0.4172584   9.9032584  -8.1882416   1.3032584   9.1762584  -9.1762416
 -22.7457416  15.1622584  -1.7972416 -22.0277416  15.7662584  -1.6082416
 -23.0887416  15.4552584  -2.6412416  -3.4187416  20.4582584 -17.6722416
  -4.3617416  20.5532584 -17.8072416  -3.2457416  19.5312584 -17.8392416
  -4.1837416  13.3242584  -6.8722416  -3.6137416  12.9172584  -7.5252416
  -3.8097416  14.1952584  -6.7362416   4.9542584  11.2192584 -15.4312416
   5.4092584  10.4522584 -15.7792416   4.2342584  11.3692584 -16.0432416
  -6.9367416  15.4512584 -18.7202416  -7.6037416  15.2862584 -18.0532416
  -6.3497416  16.0912584 -18.3192416  -3.2727416  25.6742584   7.2657584
  -2.5147416  25.3072584   6.8107584  -3.2687416  25.2462584   8.1217584
   2.6442584  15.4042584 -13.8812416   2.0792584  14.6412584 -14.0022416
   2.9572584  15.6132584 -14.7622416 -22.3437416  31.3252584  -6.1222416
 -22.5937416  30.4172584  -6.2922416 -21.4467416  31.2702584  -5.7932416
  -8.0087416  19.6932584   1.1147584  -8.6857416  20.1662584   0.6307584
  -7.4287416  20.3792584   1.4477584  -4.3407416  32.2382584 -10.1922416
  -3.9687416  33.0502584 -10.5342416  -3.8917416  31.5452584 -10.6762416
  -6.0987416  15.4402584 -15.4942416  -5.6097416  15.9492584 -16.1412416
  -6.0217416  14.5342584 -15.7942416 -17.1907416  12.3502584  -1.4182416
 -16.6767416  11.8492584  -0.7862416 -17.6967416  11.6902584  -1.8932416
   2.4902584  14.0512584   0.3587584   3.3652584  13.7162584   0.1627584
   2.1152584  14.2582584  -0.4972416 -12.2987416  15.5692584   1.5337584
 -11.4587416  15.2272584   1.2257584 -12.1777416  15.6892584   2.4757584
 -17.3757416  17.3592584  -6.0342416 -18.2617416  17.2782584  -5.6822416
 -17.3997416  18.1572584  -6.5632416   6.7262584   9.1342584 -16.0042416
   7.3892584   9.1972584 -16.6912416   6.3362584   8.2682584 -16.1262416
  -3.6857416  19.7552584  -5.5442416  -4.0757416  19.8332584  -6.4152416
  -4.0437416  20.4942584  -5.0532416   0.6442584  25.0482584  -1.4602416
   0.2032584  25.6802584  -2.0282416   0.0362584  24.9142584  -0.7332416
 -21.5637416  33.8162584  -8.2912416 -20.9227416  33.2332584  -8.6982416
 -22.3657416  33.2962584  -8.2432416 -22.2477416  11.8712584 -17.2742416
 -21.9027416  12.3762584 -18.0102416 -23.1867416  11.8042584 -17.4482416
   2.6462584  31.4352584 -13.0332416   3.3572584  31.0262584 -12.5392416
   3.0192584  31.5992584 -13.8992416  -2.9777416  20.5962584 -14.5402416
  -2.5187416  20.7562584 -13.7162416  -3.2517416  21.4642584 -14.8352416
   2.7542584  19.5662584  -3.9052416   2.3122584  19.0312584  -3.2462416
   2.0522584  20.0762584  -4.3102416 -21.1107416  22.9972584 -13.7262416
 -21.7327416  22.9472584 -14.4532416 -21.0447416  22.0982584 -13.4052416
  -1.1807416  27.9212584 -18.1772416  -0.4027416  27.5172584 -17.7942416
  -1.4207416  28.6132584 -17.5612416   6.4112584  32.2002584 -13.5422416
   6.5592584  32.7532584 -14.3092416   6.6242584  31.3152584 -13.8392416
  -1.5397416   9.1902584 -10.7972416  -1.4067416   9.5342584  -9.9142416
  -2.2147416   8.5192584 -10.6932416   0.5562584  13.4792584  -7.5652416
   0.9582584  14.3152584  -7.8032416   1.2972584  12.8992584  -7.3872416
  -0.2747416  32.3472584  -3.1112416   0.5132584  32.2602584  -2.5752416
   0.0522584  32.5012584  -3.9972416 -22.6327416  20.2672584  -7.7742416
 -22.3657416  20.0392584  -6.8842416 -21.9067416  20.7872584  -8.1172416
   2.9302584  27.5802584 -11.2002416   2.0432584  27.5622584 -10.8412416
   3.3802584  26.8582584 -10.7632416  -6.1527416  18.0032584 -12.2802416
  -6.5207416  17.5362584 -13.0312416  -5.2487416  17.6952584 -12.2252416
  -4.4637416  34.1812584 -13.3372416  -3.9407416  33.4342584 -13.6292416
  -5.2097416  34.2002584 -13.9362416 -18.0137416  34.2472584 -14.1322416
 -18.4537416  35.0712584 -13.9202416 -18.7267416  33.6292584 -14.2922416
   0.4352584  31.6002584  -8.8882416   0.1642584  32.1592584  -9.6172416
  -0.2557416  30.9412584  -8.8232416   2.9312584  34.9482584  -3.3802416
   2.7332584  34.0532584  -3.6542416   2.0792584  35.3272584  -3.1642416
 -22.7757416  14.7692584 -12.0912416 -23.3537416  14.3282584 -12.7152416
 -22.0977416  15.1712584 -12.6352416 -17.3957416  10.0732584  -5.2792416
 -16.4537416   9.9802584  -5.4262416 -17.6867416  10.6792584  -5.9602416
  -1.8277416  19.7852584   8.7237584  -1.3217416  19.1732584   9.2577584
  -1.3347416  19.8542584   7.9057584 -10.7657416  12.2232584 -19.0712416
 -11.3577416  12.9462584 -19.2782416 -10.0907416  12.2642584 -19.7492416
 -14.2567416  12.8332584   0.0477584 -13.6497416  12.5302584   0.7237584
 -14.9917416  12.2212584   0.0947584  -1.5727416  10.1642584  -8.3302416
  -1.7497416  10.1822584  -7.3902416  -1.7087416  11.0672584  -8.6172416
  -0.6897416  14.6582584  -2.9192416  -1.2307416  15.2522584  -2.3992416
  -1.1257416  14.6182584  -3.7702416  -5.7607416  18.2112584  10.7147584
  -5.8737416  19.1482584  10.8697584  -5.4467416  18.1532584   9.8117584
   5.1882584   9.9782584 -10.0842416   4.8622584   9.2082584  -9.6192416
   4.7792584   9.9282584 -10.9482416 -18.6217416  27.6952584  -3.8182416
 -19.5317416  27.8932584  -4.0392416 -18.5697416  27.8272584  -2.8722416
  -1.2347416  24.5222584   0.0807584  -1.5477416  24.9892584   0.8547584
  -0.7787416  23.7562584   0.4297584   1.7822584  21.2382584  -1.3212416
   2.5242584  20.7262584  -1.6442416   2.1822584  21.9532584  -0.8252416
 -20.1107416  12.5242584   2.4907584 -20.5007416  12.0212584   1.7757584
 -19.8067416  13.3322584   2.0757584   0.1652584  38.2052584 -12.7002416
  -0.4887416  38.5422584 -12.0882416   0.8372584  37.8132584 -12.1412416
 -10.6667416  15.8902584  -7.1582416  -9.7267416  15.8652584  -7.3372416
 -10.8397416  15.0842584  -6.6722416  -0.5497416  20.7962584  -7.8972416
  -1.0547416  21.5882584  -8.0812416  -0.5987416  20.2872584  -8.7062416
 -20.1697416  17.3612584 -10.7462416 -19.7467416  17.5632584  -9.9112416
 -21.0357416  17.7622584 -10.6792416 -20.8397416  16.6862584  -0.9532416
 -19.9887416  17.0902584  -0.7852416 -21.3977416  16.9962584  -0.2402416
   4.6972584  14.3922584  -6.7042416   4.8282584  13.5672584  -7.1722416
   4.6262584  15.0512584  -7.3952416 -16.7407416  11.9392584 -16.0452416
 -17.0937416  12.8032584 -15.8312416 -17.4307416  11.5202584 -16.5602416
  -2.6437416  11.6832584 -12.2062416  -2.0177416  11.1172584 -11.7532416
  -3.3777416  11.7642584 -11.5982416  -5.9587416  38.0962584  -8.7602416
  -6.4857416  37.5102584  -8.2172416  -6.5277416  38.3192584  -9.4962416
 -16.9197416  18.7152584 -14.0162416 -17.1707416  19.2712584 -13.2782416
 -16.9337416  19.3002584 -14.7732416  -0.7557416  36.2822584   1.9977584
  -0.5147416  35.7472584   1.2417584  -0.3987416  37.1492584   1.8017584
   3.1982584  36.8852584   1.1967584   2.5812584  36.3032584   0.7517584
   2.8722584  37.7662584   1.0117584  -6.8547416  24.3792584 -18.7052416
  -7.7367416  24.0412584 -18.5522416  -6.4157416  23.6872584 -19.2002416
  -0.6417416  16.2022584 -10.7452416   0.2722584  15.9182584 -10.7772416
  -0.6787416  16.9582584 -11.3312416   1.5802584  19.3322584 -12.1422416
   1.8882584  19.7792584 -11.3542416   2.2922584  19.4402584 -12.7732416
  -2.3397416  36.0322584  -2.8782416  -2.7917416  36.8422584  -2.6402416
  -2.8937416  35.3352584  -2.5282416  -5.6267416  32.9202584  -7.7862416
  -5.6727416  32.5262584  -8.6572416  -4.9297416  33.5732584  -7.8542416
   4.3042584  16.3572584  -8.6212416   3.8632584  17.0942584  -8.1982416
   4.4792584  16.6622584  -9.5122416   1.6242584  16.6672584 -19.2142416
   2.1932584  17.2672584 -19.6962416   2.1432584  16.4032584 -18.4542416
  -2.3607416  14.1592584 -13.4292416  -2.1167416  13.3732584 -12.9412416
  -1.5257416  14.5342584 -13.7122416 -18.7077416  25.6682584   1.5237584
 -19.2487416  26.0642584   0.8407584 -18.0217416  26.3152584   1.6917584
   0.2342584  34.1332584 -11.6322416  -0.5897416  34.5492584 -11.8852416
   0.2522584  33.3142584 -12.1272416  -7.7357416  11.5442584  -7.4072416
  -6.8757416  11.1362584  -7.5102416  -8.2297416  10.9302584  -6.8632416
 -21.5517416  15.2452584  -5.2172416 -22.4397416  15.1722584  -4.8702416
 -21.2587416  16.1152584  -4.9472416 -21.6027416  26.7662584 -11.2212416
 -21.0197416  26.8942584 -10.4722416 -22.3927416  26.3762584 -10.8472416
 -11.9557416  26.4772584   1.1837584 -11.2897416  26.3112584   0.5167584
 -12.1137416  25.6222584   1.5837584   2.5222584  21.9372584  -7.7992416
   2.2262584  22.6652584  -7.2532416   3.3122584  21.6172584  -7.3632416
   4.3052584  36.2902584  -5.0802416   3.8232584  35.7832584  -4.4272416
   5.2032584  36.3152584  -4.7502416   1.9812584  10.5492584 -13.4812416
   1.3772584   9.8062584 -13.4682416   2.8512584  10.1502584 -13.4762416
  -3.3887416  23.6022584  -3.2872416  -2.5737416  23.1072584  -3.3742416
  -3.1067416  24.4882584  -3.0592416   4.9592584  22.0332584 -15.5332416
   4.9322584  22.2762584 -14.6082416   5.0942584  22.8612584 -15.9952416
 -17.6377416  22.9532584  -3.0022416 -16.9657416  22.8712584  -2.3262416
 -18.3867416  23.3422584  -2.5512416   0.0402584  22.8182584   9.9057584
   0.2662584  23.7282584  10.1007584  -0.4667416  22.8662584   9.0957584
   1.6982584  12.2202584 -11.0432416   1.8592584  11.5602584 -11.7172416
   2.5622584  12.3972584 -10.6692416   5.0852584  24.3942584 -17.5662416
   4.2562584  23.9292584 -17.6852416   5.4632584  24.4382584 -18.4442416
  -1.3857416  14.3932584  -5.6542416  -2.0617416  14.8882584  -6.1172416
  -0.7677416  14.1342584  -6.3382416 -18.4007416  19.3042584 -18.3322416
 -19.1067416  19.8772584 -18.0332416 -17.6827416  19.4682584 -17.7202416
  -4.8577416  25.6092584  -8.0842416  -4.9007416  24.6732584  -8.2812416
  -3.9887416  25.7322584  -7.7002416   2.6742584  20.3982584  -9.9742416
   2.3132584  20.9462584  -9.2772416   3.4732584  20.0282584  -9.5992416
   4.4312584  13.4042584 -11.3192416   4.5842584  14.3252584 -11.1062416
   4.7542584  13.3092584 -12.2152416   1.3322584  17.4052584   4.9957584
   0.6562584  16.8642584   4.5887584   2.1142584  16.8532584   4.9957584
  -6.0207416  26.8552584 -17.6992416  -6.0847416  25.9642584 -18.0432416
  -5.3937416  27.2902584 -18.2762416   0.0422584  22.0062584   0.5797584
   0.7542584  21.7052584   0.0147584  -0.6997416  21.4472584   0.3487584
   0.4522584   8.9032584  -5.1552416   0.8972584   8.1962584  -5.6222416
   1.1422584   9.5392584  -4.9682416 -14.2927416  27.3592584 -14.6862416
 -14.3617416  26.4292584 -14.4702416 -14.9327416  27.4912584 -15.3852416
 -21.8917416  20.6322584 -15.8672416 -22.0397416  21.2942584 -16.5422416
 -22.5617416  19.9682584 -16.0312416  -6.5447416  14.0972584  -7.5752416
  -5.6507416  13.7872584  -7.4352416  -7.0797416  13.3042584  -7.5542416
   3.2302584  18.2042584  -6.9592416   3.5462584  17.5362584  -6.3502416
   2.2932584  18.2722584  -6.7752416   0.2142584  16.8682584 -15.8752416
   0.4082584  17.8042584 -15.9302416   0.6312584  16.5842584 -15.0612416
  -4.4097416  10.2012584 -14.8732416  -4.6347416   9.4662584 -14.3032416
  -3.4537416  10.2412584 -14.8462416  -2.8967416  16.8012584  -9.3142416
  -2.8967416  17.6852584  -9.6812416  -2.1927416  16.3492584  -9.7772416
  -0.1147416  19.8042584   6.7717584  -0.0427416  18.9902584   6.2727584
   0.7772584  19.9822584   7.0707584  -0.4637416  26.2572584  -5.6522416
  -0.3277416  26.9912584  -5.0542416  -1.3107416  26.4342584  -6.0622416
  -4.2527416  27.3602584   5.3017584  -4.0127416  26.7342584   5.9857584
  -3.4537416  27.8622584   5.1447584 -21.8277416  20.2182584 -12.9142416
 -22.0007416  20.0032584 -13.8312416 -21.9687416  19.3962584 -12.4442416
  -4.2617416  14.6692584 -10.4342416  -4.1197416  14.7392584 -11.3782416
  -3.9477416  15.5012584 -10.0812416  -5.2237416  10.5512584  -7.6812416
  -5.2707416  10.3592584  -6.7442416  -5.3647416   9.7062584  -8.1062416
   0.2812584  14.4792584 -17.0942416   0.3112584  15.3972584 -16.8252416
  -0.2297416  14.4822584 -17.9032416  -3.3767416  37.4522584 -18.5112416
  -2.4197416  37.4442584 -18.5172416  -3.6167416  36.9322584 -17.7442416
   7.1932584  11.7462584 -10.6452416   6.4812584  11.1212584 -10.5082416
   6.8172584  12.5942584 -10.4112416 -14.8837416   9.3632584 -12.3192416
 -14.4207416   9.8382584 -11.6292416 -15.1947416  10.0462584 -12.9132416
   3.2562584  14.6362584 -16.5072416   3.9692584  14.9102584 -17.0842416
   2.6692584  14.1352584 -17.0732416   2.6052584  29.2492584 -17.8482416
   2.6932584  29.4342584 -18.7832416   3.4172584  28.7992584 -17.6152416
  -9.1007416   9.2422584   9.4137584  -9.9977416   9.1092584   9.7187584
  -8.5617416   9.1262584  10.1967584  -1.8647416  12.8182584  -1.6252416
  -2.2247416  12.3402584  -2.3722416  -1.2827416  13.4702584  -2.0162416
  -3.2547416  21.8892584   9.9397584  -3.1857416  21.3672584  10.7397584
  -2.8677416  21.3382584   9.2597584   6.5982584  18.2112584 -18.1642416
   6.9762584  18.0512584 -19.0282416   6.0812584  17.4262584 -17.9792416
 -20.2037416  24.8192584   8.2247584 -20.4377416  24.4762584   7.3627584
 -19.2717416  24.6192584   8.3177584  -1.3867416  21.6412584   4.8737584
  -1.1857416  20.7752584   5.2297584  -1.5277416  21.4902584   3.9397584
 -21.8307416  22.3572584   7.4157584 -21.5287416  22.4442584   8.3197584
 -21.0627416  22.0492584   6.9347584  -1.0427416  21.7952584 -16.9962416
  -1.0327416  22.1412584 -17.8882416  -1.8507416  21.2842584 -16.9462416
 -22.1237416  12.9152584   7.1997584 -21.9847416  12.7692584   6.2647584
 -21.9297416  13.8432584   7.3297584   5.2242584  34.2042584 -19.1792416
   4.8452584  34.8182584 -19.8092416   5.9842584  34.6652584 -18.8242416
 -19.8897416  18.6902584   3.5397584 -20.4807416  19.2582584   3.0447584
 -19.3067416  19.2942584   3.9997584   5.9532584  36.6182584 -16.3322416
   6.0692584  35.7192584 -16.0242416   6.6712584  36.7562584 -16.9492416
 -20.1577416  15.5062584   3.9497584 -19.8907416  16.3182584   3.5177584
 -20.7027416  15.0582584   3.3017584  -0.3737416  32.9052584 -18.5612416
  -1.1497416  32.8332584 -18.0052416  -0.3007416  32.0492584 -18.9832416
 -19.5717416  27.1322584   5.4107584 -20.1967416  26.4082584   5.4347584
 -18.7237416  26.7252584   5.5877584 -17.6237416  23.6792584   9.3507584
 -17.5567416  23.0802584   8.6077584 -16.7157416  23.8512584   9.6017584
  -3.2497416  27.6932584 -14.5882416  -2.9787416  26.9352584 -15.1052416
  -3.2347416  28.4232584 -15.2072416   4.1332584  19.0052584 -13.8322416
   4.4902584  19.8702584 -13.6342416   4.7362584  18.6392584 -14.4802416
  -0.6197416  15.7832584   3.8537584  -0.1737416  15.6642584   3.0157584
  -0.8217416  14.8942584   4.1467584   0.2482584  35.2562584  -3.4242416
  -0.6887416  35.2542584  -3.2302416   0.3712584  34.5162584  -4.0192416
 -21.0927416  13.1822584 -15.1532416 -21.4137416  12.7652584 -15.9532416
 -21.7207416  12.9232584 -14.4792416   3.9052584  37.3282584 -18.1562416
   4.7252584  36.9772584 -17.8092416   3.5252584  37.8172584 -17.4262416
   1.4492584  31.9772584  -1.0122416   1.4692584  31.1912584  -0.4652416
   2.3422584  32.0582584  -1.3482416   4.6022584  36.4782584   8.9777584
   4.0592584  37.0092584   9.5617584   5.2622584  37.0872584   8.6457584
 -16.6447416  29.9652584   5.9987584 -16.1837416  30.7432584   5.6857584
 -16.0057416  29.2572584   5.9127584   1.3692584  26.9432584 -17.6142416
   1.7272584  27.8082584 -17.8152416   2.0212584  26.5412584 -17.0392416
   2.4382584  23.5702584  -0.1412416   1.8742584  23.7742584   0.6057584
   2.2212584  24.2352584  -0.7942416   5.0822584  11.3732584 -18.5912416
   4.3322584  10.8002584 -18.4302416   4.7642584  12.2502584 -18.3802416
  -5.2177416  14.3792584   2.4847584  -4.8797416  13.4852584   2.5347584
  -4.5667416  14.8542584   1.9677584  -2.7387416  15.0362584   1.2967584
  -2.3957416  14.1742584   1.0617584  -1.9597416  15.5712584   1.4487584
  -4.9267416  16.0592584   4.7417584  -5.0487416  15.1102584   4.7117584
  -5.7907416  16.4052584   4.9677584  -1.2427416  24.1172584   6.0397584
  -0.5647416  23.9372584   6.6907584  -1.4197416  23.2672584   5.6357584
   1.1942584  13.1412584 -14.3092416   1.0782584  12.9572584 -15.2412416
   1.4412584  12.2992584 -13.9272416 -20.2897416  12.2252584   9.6137584
 -20.4667416  13.1642584   9.6567584 -20.8017416  11.9172584   8.8657584
 -12.9167416  20.2402584  -2.2012416 -12.6057416  19.6582584  -1.5082416
 -12.6837416  19.7902584  -3.0142416 -20.5527416  24.3962584   5.3317584
 -21.3137416  23.9032584   5.0267584 -19.7997416  23.8862584   5.0327584
  -2.8037416  17.6382584   4.0287584  -2.0057416  17.1102584   4.0757584
  -3.5027416  17.0392584   4.2927584   0.7992584  21.1552584  -5.1872416
   0.5002584  21.0622584  -6.0912416   1.0592584  22.0732584  -5.1132416
  -0.8797416  26.8932584   8.0437584  -1.1207416  27.6522584   8.5747584
  -1.6007416  26.2752584   8.1657584   0.2902584  15.5282584   1.3517584
   0.7652584  16.2242584   0.8977584   0.7762584  14.7302584   1.1417584
 -22.6857416  15.6082584   5.6557584 -21.8057416  15.7422584   5.3017584
 -23.1287416  16.4462584   5.5207584  -1.5237416  12.6472584  -9.1432416
  -0.6357416  12.8652584  -8.8602416  -1.8497416  13.4512584  -9.5492416
 -17.5287416  19.9902584 -11.8322416 -17.9617416  19.3572584 -11.2582416
 -17.2317416  20.6832584 -11.2432416   4.1622584  34.5572584   2.7947584
   5.0842584  34.6482584   3.0387584   3.9992584  35.2862584   2.1967584
 -22.2977416  18.2002584  -5.4822416 -22.9797416  18.2152584  -4.8102416
 -22.5817416  17.5232584  -6.0972416  -0.7997416  22.3812584  -3.2622416
  -0.1587416  21.8132584  -3.6902416  -0.3167416  22.7852584  -2.5412416
  -1.4557416  32.0182584   7.7747584  -0.7547416  32.5722584   7.4307584
  -1.9867416  32.6072584   8.3097584 -19.6697416  24.3432584  -1.9382416
 -19.5187416  25.1702584  -1.4812416 -20.4827416  24.4822584  -2.4242416
 -22.9327416  17.6622584   8.0697584 -22.3667416  17.9312584   7.3457584
 -22.3537416  17.1832584   8.6627584  -9.0647416  14.8872584  -3.7412416
  -8.5617416  15.2822584  -4.4532416  -9.3787416  15.6322584  -3.2282416
 -18.8927416  22.7502584   0.7157584 -19.4827416  23.4802584   0.9007584
 -18.9367416  22.6412584  -0.2342416  -3.4537416  17.5292584   0.5847584
  -3.8367416  18.3322584   0.9377584  -3.6947416  16.8502584   1.2157584
  -5.5907416  10.6762584  -5.1172416  -5.3497416  10.1182584  -4.3772416
  -5.8107416  11.5192584  -4.7202416 -17.3457416  22.7512584   6.7567584
 -17.9557416  22.1162584   6.3797584 -16.5387416  22.2562584   6.8937584
 -16.6307416  12.0802584   4.4807584 -15.7747416  11.8682584   4.8537584
 -17.1797416  12.2792584   5.2387584 -22.1557416  22.5582584   4.1447584
 -23.0947416  22.3822584   4.2007584 -21.8257416  21.9052584   3.5277584
 -20.7527416  20.9392584   2.2917584 -20.0287416  21.4832584   1.9827584
 -21.4877416  21.1732584   1.7257584   4.6672584  16.7302584 -12.0032416
   4.2722584  17.4902584 -12.4312416   4.6462584  16.0432584 -12.6692416
 -18.1677416  16.6402584 -19.0192416 -18.2567416  17.5762584 -18.8402416
 -17.2267416  16.4742584 -18.9642416 -19.2277416  13.7282584  -4.6572416
 -18.5197416  14.1812584  -5.1162416 -19.9597416  14.3452584  -4.6762416
  -8.4387416  17.0292584   1.1107584  -8.3797416  17.9812584   1.1877584
  -8.4087416  16.8622584   0.1687584 -20.3727416  37.8822584   1.9417584
 -21.0397416  37.1972584   1.9237584 -20.6627416  38.5172584   1.2867584
  -3.1667416  25.4972584   2.2857584  -2.5317416  25.6922584   2.9747584
  -3.3997416  26.3522584   1.9237584 -21.0967416  12.9932584  -2.0182416
 -21.5387416  12.5472584  -2.7412416 -21.7257416  13.6512584  -1.7222416
 -19.0207416  11.5732584 -13.8392416 -18.0667416  11.6502584 -13.8062416
 -19.3037416  12.3182584 -14.3692416  -0.4967416  18.7902584   2.3837584
  -1.0857416  19.5402584   2.2937584  -1.0437416  18.1002584   2.7607584
  -4.2907416  34.1352584 -18.6632416  -4.1937416  35.0372584 -18.3572416
  -3.6097416  34.0342584 -19.3292416   1.5132584  23.7522584  -5.9472416
   0.9312584  24.4812584  -6.1602416   2.0752584  24.0902584  -5.2492416
  -0.2597416  24.0112584 -15.0922416  -0.9177416  24.5222584 -15.5642416
  -0.3167416  23.1352584 -15.4732416  -3.2527416   8.4932584  -2.1432416
  -2.9547416   8.7832584  -3.0052416  -4.1267416   8.8712584  -2.0512416
   1.7712584  34.6182584   0.3877584   2.5052584  34.1682584  -0.0312416
   0.9952584  34.2772584  -0.0582416  -0.8357416  38.1652584 -15.0902416
  -1.3147416  38.9872584 -14.9942416  -0.5137416  37.9702584 -14.2102416
  -3.0287416  32.4322584  -5.8202416  -2.5287416  32.5752584  -6.6242416
  -2.4267416  31.9612584  -5.2442416  -6.5697416  11.0272584 -12.3442416
  -6.3087416  10.1512584 -12.6272416  -5.7497416  11.4542584 -12.0982416
  -4.9517416  12.0832584 -10.5572416  -4.7847416  13.0132584 -10.4012416
  -5.1117416  11.7182584  -9.6872416  -2.4777416  32.5422584 -16.5562416
  -3.2017416  33.0312584 -16.9452416  -2.5567416  32.7042584 -15.6162416
   4.3422584  29.8492584 -11.2542416   4.2102584  30.4332584 -10.5072416
   3.5592584  29.2992584 -11.2712416  -1.6927416  10.5452584 -14.6412416
  -1.6957416  11.0942584 -13.8562416  -1.2457416  11.0742584 -15.3022416
  -0.7987416  18.5742584  -3.1602416  -0.8237416  18.7532584  -4.1012416
   0.0812584  18.2292584  -3.0052416  -6.1977416  26.5252584  -6.0252416
  -6.0777416  25.9352584  -6.7692416  -5.3597416  26.9782584  -5.9412416
   5.0572584  25.8662584 -10.0192416   4.9402584  25.7322584  -9.0792416
   5.5012584  26.7122584 -10.0872416 -21.7737416  34.0382584  -5.4092416
 -22.5977416  33.6742584  -5.0872416 -21.5757416  33.5262584  -6.1932416
 -20.8727416  38.1222584  -0.7382416 -20.5597416  37.2182584  -0.7252416
 -21.2957416  38.2172584  -1.5922416 -21.6507416  26.8952584   0.6597584
 -22.5357416  27.2152584   0.4857584 -21.7717416  25.9802584   0.9147584
 -20.7267416  36.7682584 -15.8722416 -21.1587416  37.2092584 -16.6032416
 -20.3397416  37.4782584 -15.3592416  -5.3477416  28.0492584 -12.4472416
  -6.2357416  27.7042584 -12.3532416  -5.0857416  27.7982584 -13.3332416
   2.6952584  33.7892584   9.4057584   3.5432584  33.3502584   9.3297584
   2.2372584  33.5672584   8.5947584  -2.8747416  31.9812584 -13.9282416
  -3.3477416  31.1492584 -13.9112416  -1.9607416  31.7402584 -13.7772416
   0.2372584  30.0602584  -5.8892416  -0.2377416  30.0442584  -6.7202416
   1.1452584  29.8742584  -6.1282416  -1.2807416  35.4582584 -15.4462416
  -0.9737416  35.1372584 -16.2942416  -1.0057416  36.3752584 -15.4232416
  -0.2407416  31.6172584 -13.1312416  -0.2927416  30.8332584 -12.5842416
   0.6772584  31.6642584 -13.3982416 -20.0707416  31.6762584   2.3237584
 -19.9177416  32.0452584   1.4547584 -20.2597416  32.4342584   2.8767584
   2.4222584  11.6812584  -6.9702416   2.0492584  11.0742584  -7.6092416
   3.2782584  11.9132584  -7.3302416 -19.7537416  35.2022584  -3.8082416
 -20.3947416  34.7282584  -4.3372416 -19.6907416  36.0632584  -4.2212416
   1.3052584  30.2602584 -15.6452416   1.9502584  30.8832584 -15.3112416
   1.6302584  30.0192584 -16.5122416   2.5162584  24.9542584 -15.6502416
   2.6232584  24.2982584 -16.3392416   1.6822584  24.7322584 -15.2352416
 -21.5987416  32.8132584   9.5957584 -22.0547416  32.0232584   9.8847584
 -20.6877416  32.5392584   9.4877584   2.8662584  29.3242584   3.8697584
   3.1312584  30.1272584   3.4217584   2.2212584  28.9252584   3.2867584
  -1.3097416  26.1112584 -10.3892416  -2.1197416  26.3992584  -9.9682416
  -1.5997416  25.6042584 -11.1472416  -1.4977416  29.7322584  -8.4732416
  -2.4347416  29.8152584  -8.2962416  -1.4507416  29.3562584  -9.3522416
  -2.8657416  34.3972584   8.9997584  -3.7517416  34.7532584   8.9367584
  -2.4247416  34.7092584   8.2097584  -0.0387416  27.7462584  -2.0012416
  -0.5057416  28.4972584  -2.3692416   0.6192584  28.1332584  -1.4232416
  -3.0937416  29.9742584 -11.7892416  -3.6887416  29.3062584 -12.1302416
  -2.2957416  29.4942584 -11.5702416   0.8972584  26.1822584  -8.8672416
   1.3462584  25.3682584  -9.0942416   0.1462584  26.2142584  -9.4602416
   4.6642584  34.2702584 -12.8732416   4.9512584  33.3672584 -12.7432416
   4.5892584  34.3642584 -13.8232416   4.3472584  33.6572584  -0.5192416
   4.4242584  33.0252584  -1.2332416   5.1362584  34.1942584  -0.5872416
  -5.7817416  31.1442584  -1.7112416  -5.9257416  30.4492584  -2.3542416
  -6.0307416  31.9482584  -2.1662416   2.7092584  10.5752584 -17.1062416
   1.8902584  11.0682584 -17.1512416   2.4722584   9.7532584 -16.6772416
   5.0312584  24.9122584 -14.4192416   4.3582584  24.8792584 -15.0992416
   5.4202584  25.7832584 -14.5082416  -4.6447416  19.8822584  -1.2492416
  -4.6937416  20.1232584  -0.3242416  -3.7787416  20.1792584  -1.5282416
 -11.0117416  12.6152584  -3.9142416 -11.7487416  12.8212584  -3.3382416
 -10.3097416  13.1962584  -3.6222416   1.8212584  38.1472584 -16.1152416
   0.8742584  38.0342584 -16.0392416   2.1752584  37.7382584 -15.3252416
   1.3482584  36.9032584 -10.7092416   2.1802584  36.4302584 -10.6942416
   0.7172584  36.2902584 -10.3322416   4.8232584  36.7772584 -11.7942416
   4.7602584  35.8252584 -11.8752416   4.7482584  36.9422584 -10.8542416
   3.9112584  31.6712584  -2.2632416   4.2402584  31.9642584  -3.1132416
   3.6342584  30.7672584  -2.4112416   5.8362584  31.8512584 -17.2482416
   6.7402584  32.1562584 -17.1802416   5.4232584  32.4582584 -17.8622416
  -4.7047416  37.7682584  -5.5312416  -3.9817416  38.3912584  -5.4632416
  -4.2857416  36.9372584  -5.7532416 -21.9237416  24.3272584   1.6157584
 -21.7867416  24.0812584   2.5307584 -22.7637416  23.9302584   1.3837584
   6.9052584  35.4692584  -1.2282416   6.7442584  35.9332584  -2.0502416
   6.4572584  35.9932584  -0.5652416 -15.6727416  32.0642584  -1.8632416
 -15.8467416  32.8762584  -2.3372416 -15.3237416  31.4682584  -2.5262416
 -17.9937416  29.0392584   0.9537584 -17.9077416  29.9672584   1.1717584
 -17.9197416  28.5872584   1.7937584   2.4962584  34.4442584  -7.6072416
   2.2452584  34.0312584  -8.4332416   1.8702584  35.1602584  -7.4972416
  -7.3457416  31.8962584 -16.3442416  -6.8627416  31.7142584 -17.1502416
  -7.4407416  31.0412584 -15.9242416  -9.2957416  36.3532584  -4.0172416
  -8.3597416  36.2842584  -3.8302416  -9.5427416  35.4842584  -4.3332416
   2.3602584  33.5932584 -17.5692416   1.4492584  33.3022584 -17.5532416
   2.5812584  33.6392584 -18.4992416  -1.6527416  35.6002584 -12.8322416
  -1.3877416  35.3732584 -13.7232416  -1.2707416  36.4642584 -12.6802416
  -5.7527416  35.2952584   8.8247584  -6.4137416  35.5432584   9.4707584
  -6.2547416  34.9282584   8.0967584  -6.7597416  12.9982584  -3.6092416
  -6.7257416  12.9442584  -2.6542416  -7.3537416  13.7282584  -3.7862416
 -19.9267416  35.8972584  -7.1132416 -20.7827416  35.4722584  -7.1652416
 -19.5387416  35.7642584  -7.9772416   5.8852584  27.6352584 -15.5182416
   6.7532584  27.2572584 -15.6632416   5.3552584  27.3022584 -16.2422416
   4.5132584  27.3242584 -17.8382416   5.0062584  27.6092584 -18.6082416
   4.5402584  26.3682584 -17.8762416 -22.6357416  34.3062584 -15.7382416
 -22.2037416  33.7642584 -16.3992416 -21.9627416  34.9272584 -15.4602416
  -0.8997416  28.6992584 -11.0942416  -1.0147416  27.7552584 -10.9912416
  -0.3947416  28.7932584 -11.9012416  -1.9857416  34.2162584  -7.8342416
  -2.2027416  34.3792584  -8.7522416  -2.0107416  35.0802584  -7.4242416
   4.5502584   9.6142584 -13.1132416   4.8242584  10.0972584 -13.8932416
   5.2072584   8.9252584 -13.0142416  -4.3137416  29.3272584  -8.0402416
  -4.5167416  28.6972584  -8.7312416  -4.9357416  30.0412584  -8.1752416
   4.7862584  37.3572584  -8.9422416   4.6452584  37.8052584  -8.1082416
   5.6952584  37.0612584  -8.9062416 -12.9087416  36.7582584  -1.8122416
 -12.2587416  36.0572584  -1.8592416 -13.7457416  36.3212584  -1.9702416
 -22.1837416  33.5192584   0.4457584 -21.2557416  33.3022584   0.5327584
 -22.2157416  34.1502584  -0.2722416 -10.5367416  24.8592584   9.3957584
  -9.8557416  25.5312584   9.4257584 -10.3527416  24.3662584   8.5957584
   6.6982584  18.0432584 -15.4412416   6.4302584  17.8752584 -16.3442416
   7.5322584  17.5832584 -15.3482416   2.1332584  36.9862584  -6.4862416
   2.8612584  36.5002584  -6.0992416   2.5432584  37.7462584  -6.8982416
   3.4542584  29.0102584  -2.8472416   3.1532584  28.1702584  -3.1932416
   4.3452584  28.8382584  -2.5422416 -21.8857416  38.3932584  -9.4322416
 -21.3877416  37.8322584 -10.0282416 -22.7287416  38.5172584  -9.8682416
 -22.6777416   8.7132584 -13.2362416 -22.6727416   8.6412584 -14.1912416
 -22.1327416   7.9852584 -12.9382416  -2.7007416  34.7482584 -10.4232416
  -2.4237416  34.8032584 -11.3372416  -2.9277416  35.6472584 -10.1862416
   0.8312584  37.6182584   7.9937584   1.0562584  37.0902584   8.7597584
   0.9082584  38.5232584   8.2957584  -5.0037416   9.9322584 -17.3652416
  -4.9887416   9.7422584 -16.4272416  -4.8107416   9.0922584 -17.7832416
  -1.5217416  29.8752584 -16.1772416  -0.6157416  30.0362584 -15.9142416
  -1.8777416  30.7452584 -16.3542416   2.0272584  26.5692584  -3.8502416
   2.3112584  25.7092584  -3.5422416   1.4562584  26.8962584  -3.1552416
   3.1332584  31.5112584  -9.2062416   2.2342584  31.3332584  -8.9312416
   3.0712584  32.3132584  -9.7252416 -14.9607416  13.0882584   9.4507584
 -14.5857416  13.1732584  10.3267584 -15.4437416  12.2622584   9.4747584
 -22.2557416  31.4672584 -10.9942416 -22.6207416  31.8722584 -11.7802416
 -22.9497416  31.5452584 -10.3392416  -3.7127416  33.6902584  -1.7492416
  -3.9617416  33.9552584  -0.8642416  -4.2877416  32.9512584  -1.9492416
   1.8822584  34.9302584   4.6087584   2.6542584  34.8422584   4.0497584
   1.2142584  34.3922584   4.1827584  -3.0177416  35.7472584   3.9127584
  -2.2677416  35.5772584   3.3427584  -3.2037416  36.6792584   3.7917584
   3.2722584  37.0902584 -14.0532416   3.7112584  37.3802584 -13.2532416
   3.7242584  36.2812584 -14.2942416  -0.8077416  35.9812584 -18.3622416
   0.1172584  36.0462584 -18.5992416  -1.0787416  35.1232584 -18.6892416
  -5.1937416  29.1792584 -16.1562416  -5.3917416  28.3282584 -16.5482416
  -5.0337416  29.7552584 -16.9032416  -3.6227416  30.8262584  -0.0072416
  -3.9307416  30.4862584   0.8327584  -4.4107416  30.8812584  -0.5472416
  -0.3537416  31.2662584   5.0067584   0.4832584  31.7312584   5.0267584
  -0.8857416  31.7562584   4.3797584   6.5262584  28.5412584  -9.7692416
   7.3322584  28.9422584 -10.0952416   5.9062584  28.6292584 -10.4932416
  -8.1927416  32.7442584   9.4877584  -9.0507416  33.1672584   9.5087584
  -7.7177416  33.1982584   8.7917584   6.2932584  34.8662584   6.6057584
   5.7172584  34.9202584   7.3677584   5.7852584  34.3812584   5.9547584
   4.6222584  33.0632584   5.1837584   3.8072584  32.9752584   4.6907584
   4.5612584  32.3972584   5.8687584 -19.9637416  34.1462584   3.7687584
 -19.0377416  33.9312584   3.6537584 -19.9587416  35.0022584   4.1977584
   1.0702584  30.2002584   7.7997584   1.7562584  30.6812584   7.3377584
   0.2862584  30.7392584   7.6917584   7.0992584  36.4672584   2.4857584
   6.5692584  36.8162584   3.2027584   7.2352584  35.5472584   2.7127584
  -1.9837416  28.8732584   5.1657584  -1.3647416  29.6002584   5.2307584
  -1.9967416  28.6522584   4.2337584   1.2912584  20.6902584  10.0047584
   0.8982584  21.5632584   9.9967584   0.5542584  20.0972584  10.1547584
 -19.0107416  11.0742584 -17.8442416 -19.6477416  11.5322584 -18.3932416
 -19.5377416  10.4882584 -17.3022416   3.6512584  30.5372584   6.4447584
   4.4932584  30.1202584   6.6277584   3.3292584  30.0922584   5.6597584
   1.4632584  37.6492584   5.2827584   1.4802584  37.3832584   6.2017584
   1.6632584  36.8492584   4.7977584  -3.4097416  31.2622584   5.8577584
  -3.2987416  30.5402584   5.2387584  -2.6947416  31.1542584   6.4837584
  -2.0687416  12.3362584   0.8667584  -1.9437416  12.3862584  -0.0802416
  -1.1977416  12.4872584   1.2327584   6.2132584  37.2472584   4.9527584
   7.0552584  37.5982584   5.2447584   6.0392584  36.5162584   5.5457584
   3.3512584  34.8382584 -15.4712416   2.8602584  35.6472584 -15.3282416
   3.0032584  34.4892584 -16.2912416  -5.7667416  36.8462584   5.4377584
  -5.2257416  36.9402584   6.2217584  -5.6317416  35.9402584   5.1607584
   0.8132584  33.3872584   2.6957584   0.0452584  33.0332584   2.2467584
   1.3432584  33.7722584   1.9977584  -1.5537416  31.9512584   1.4077584
  -2.2887416  31.5162584   0.9767584  -1.9507416  32.4272584   2.1367584
 -19.6337416  38.1322584   4.4847584 -19.9117416  37.9342584   3.5907584
 -19.1977416  38.9822584   4.4187584   1.6152584  17.8502584   0.7357584
   2.4462584  18.0652584   1.1597584   0.9472584  18.1912584   1.3307584
 -20.1027416  29.5952584 -18.8452416 -20.9437416  30.0532584 -18.8362416
 -19.9167416  29.4552584 -19.7742416  -4.2327416  35.0072584   0.5987584
  -3.4097416  35.4402584   0.8247584  -4.8717416  35.3722584   1.2097584
   0.7862584  28.8802584 -13.2772416   1.6482584  28.4812584 -13.1582416
   0.8172584  29.2642584 -14.1532416  -1.7877416  30.3902584  -2.0342416
  -2.1657416  30.4952584  -1.1602416  -1.3497416  31.2232584  -2.2082416
 -17.7677416  28.6942584   3.9377584 -17.3737416  29.2402584   4.6177584
 -18.5737416  28.3622584   4.3337584   1.7592584  36.3472584  10.2077584
   2.1212584  35.5022584   9.9417584   2.3752584  36.6772584  10.8617584
  -0.4907416   9.0372584 -19.3602416   0.0422584   8.7602584 -18.6152416
   0.1452584   9.2512584 -20.0432416 -20.7427416  10.8762584   0.2597584
 -20.7707416  11.5352584  -0.4342416 -21.4147416  10.2402584   0.0147584
  -6.7787416  37.6942584  -0.7902416  -7.7157416  37.6072584  -0.9672416
  -6.6707416  37.3592584   0.0997584  -2.4207416  32.6422584   3.8237584
  -2.7237416  33.5412584   3.9497584  -2.9677416  32.1202584   4.4107584
 -21.9377416  14.6512584 -18.4752416 -21.6087416  15.1052584 -19.2512416
 -21.1937416  14.6322584 -17.8742416 -18.2437416  34.2962584   6.5937584
 -19.1787416  34.4622584   6.7107584 -18.1057416  33.4252584   6.9677584
 -12.8057416  34.6672584   2.5887584 -11.9787416  34.1962584   2.6937584
 -12.5457416  35.5792584   2.4527584  -9.6927416  37.6812584  -1.2762416
  -9.3857416  37.0922584  -1.9652416 -10.4617416  38.1092584  -1.6522416
 -18.6857416  22.1092584  24.3807584 -18.7857416  22.8582584  24.9677584
 -18.1407416  21.4922584  24.8687584  -1.5187416  13.6972584  40.5507584
  -2.2657416  13.3882584  41.0637584  -1.8867416  14.3602584  39.9667584
 -15.8427416  35.7082584  14.7527584 -16.5477416  35.1512584  15.0827584
 -15.8177416  36.4472584  15.3607584 -16.0957416  27.1442584  32.0897584
 -16.4227416  27.7992584  32.7077584 -15.1537416  27.3072584  32.0447584
 -10.9217416  20.4022584  22.7007584 -11.5167416  19.6792584  22.8997584
 -10.0497416  20.0102584  22.7287584 -16.9277416  15.4032584  19.3207584
 -17.3927416  14.6062584  19.0677584 -16.9037416  15.9302584  18.5217584
 -22.1707416  22.5072584  19.1557584 -22.9937416  22.8272584  18.7837584
 -21.8977416  21.8062584  18.5647584 -13.7427416  17.1162584  28.4457584
 -14.3487416  16.6832584  29.0477584 -13.4127416  16.4102584  27.8897584
 -11.5807416  19.7822584  16.3237584 -12.1647416  20.2322584  16.9337584
 -11.1277416  19.1312584  16.8597584 -17.1917416  22.1202584  19.5697584
 -17.0417416  22.1512584  20.5147584 -18.0527416  22.5202584  19.4497584
 -20.2737416  15.5972584  39.4667584 -19.5327416  16.0092584  39.9127584
 -19.9437416  15.3942584  38.5917584  -9.8757416  33.9862584  24.8177584
  -8.9427416  33.7942584  24.7287584 -10.2827416  33.5552584  24.0667584
 -12.1217416  24.4182584  17.2847584 -11.6727416  25.2592584  17.3687584
 -12.9297416  24.5272584  17.7867584  -4.3747416  13.2912584  35.6657584
  -4.6917416  12.9482584  36.5007584  -4.4347416  12.5502584  35.0627584
 -20.4177416  29.2042584  14.4657584 -19.6247416  29.7402584  14.4667584
 -20.1337416  28.3542584  14.8017584 -13.1517416  32.4372584  40.8057584
 -13.7587416  33.0282584  40.3607584 -12.2837416  32.7812584  40.5947584
  -9.2767416  23.1122584  11.1547584  -9.9057416  22.4112584  11.3257584
  -9.7287416  23.6972584  10.5467584  -5.8737416  30.4622584  23.9867584
  -5.5287416  31.3382584  23.8177584  -5.1437416  29.8742584  23.7927584
 -18.3747416  37.2202584  36.8537584 -17.9087416  36.5432584  36.3627584
 -19.0227416  37.5612584  36.2367584 -11.0467416  31.5522584  19.1627584
 -11.1167416  32.3162584  18.5917584 -10.7307416  30.8522584  18.5907584
  -8.2757416  34.4832584  12.5107584  -7.6517416  34.4772584  11.7847584
  -7.8347416  33.9982584  13.2087584 -21.2177416  16.3022584  15.7577584
 -20.8937416  15.5142584  15.3227584 -20.4317416  16.7282584  16.1007584
 -18.4287416  10.1292584  27.2577584 -19.3597416  10.2662584  27.0837584
 -18.0387416  10.0052584  26.3927584  -5.8287416  22.8152584  39.0047584
  -4.9867416  22.4172584  39.2257584  -5.6657416  23.2802584  38.1837584
 -11.7877416  10.6152584  28.7657584 -12.0497416  11.5362584  28.7587584
 -11.1147416  10.5622584  29.4437584 -15.9317416  35.3602584  20.3777584
 -15.7147416  36.2432584  20.6757584 -15.7897416  35.3842584  19.4317584
 -10.5297416  17.5102584  37.5797584 -10.9307416  18.2612584  37.1437584
  -9.8207416  17.8862584  38.1017584 -14.4527416  14.8182584  14.1217584
 -13.7887416  15.3402584  13.6717584 -14.8187416  15.4112584  14.7787584
 -15.0127416  22.2042584  17.7117584 -15.6477416  21.9432584  18.3787584
 -14.4417416  21.4422584  17.6127584 -15.1577416  25.7352584  23.1217584
 -15.6737416  26.3282584  23.6687584 -15.1927416  24.8952584  23.5797584
  -1.5777416  28.9352584  25.5667584  -1.9307416  29.4722584  26.2767584
  -0.8587416  29.4552584  25.2067584 -15.5987416  16.6372584  40.4717584
 -15.4467416  17.1762584  41.2477584 -14.7417416  16.5752584  40.0507584
 -12.3967416  34.3182584  37.4147584 -12.4047416  34.7172584  36.5447584
 -13.1907416  34.6472584  37.8367584 -11.6147416  34.7312584  12.1777584
 -11.5557416  35.6812584  12.2797584 -11.1677416  34.3792584  12.9467584
  -9.6597416  20.7532584  37.6777584  -9.2327416  20.4812584  36.8647584
  -8.9447416  20.8382584  38.3077584 -11.4407416  29.2512584  23.5997584
 -11.4617416  30.0202584  23.0287584 -10.5197416  28.9922584  23.6187584
  -7.2357416  12.9362584  33.8277584  -6.6837416  13.5772584  33.3797584
  -7.5397416  12.3532584  33.1327584  -8.2737416  27.9602584  18.4267584
  -8.7857416  27.3952584  19.0047584  -8.8997416  28.6142584  18.1147584
 -17.8897416  22.5142584  16.6737584 -17.5637416  21.7152584  17.0887584
 -18.4107416  22.9422584  17.3527584 -10.8647416  13.3652584  29.0507584
  -9.9957416  13.7512584  28.9437584 -11.0407416  13.4262584  29.9897584
 -19.8067416  32.1552584  15.6127584 -20.2467416  31.5652584  16.2247584
 -19.0157416  31.6842584  15.3507584 -13.4157416  14.4322584  24.1797584
 -14.3387416  14.2552584  24.3607584 -13.2617416  14.0442584  23.3187584
 -16.3477416  27.4812584  24.8307584 -17.0097416  27.3902584  25.5157584
 -15.7167416  28.1052584  25.1887584 -10.0797416  13.1762584  23.6547584
  -9.2507416  12.7102584  23.5427584 -10.4367416  12.8352584  24.4757584
 -11.8877416  23.9492584  22.5207584 -12.7357416  23.5422584  22.3447584
 -12.0777416  24.8862584  22.5757584 -11.5287416  17.0862584  19.9697584
 -11.4657416  16.3772584  20.6107584 -12.1337416  17.7132584  20.3637584
 -15.4297416  37.2462584  12.2997584 -16.1257416  36.7212584  11.9047584
 -15.5197416  37.0942584  13.2407584  -7.1167416  27.0412584  15.1687584
  -6.9397416  27.0372584  14.2287584  -6.5587416  26.3472584  15.5207584
 -16.7997416   9.3142584  15.0827584 -15.9507416   8.9052584  14.9137584
 -16.6457416  10.2492584  14.9507584 -13.3947416  17.1552584  17.1837584
 -12.9057416  16.8892584  17.9627584 -12.7877416  17.7162584  16.7007584
 -11.8387416  26.8302584  26.5857584 -11.2037416  26.3172584  26.0857584
 -12.6677416  26.3672584  26.4687584 -13.7337416  18.5152584  20.5987584
 -13.4977416  18.7552584  21.4947584 -14.6667416  18.3042584  20.6447584
 -14.1437416  31.5192584  16.3467584 -13.6427416  31.1372584  17.0677584
 -13.5017416  31.6442584  15.6477584 -20.0427416  18.7552584  26.5587584
 -20.6087416  19.2272584  25.9477584 -20.6487416  18.3022584  27.1457584
 -19.0137416  14.3632584  29.1657584 -18.2707416  13.8282584  28.8877584
 -19.7647416  13.9882584  28.7047584 -15.5417416  13.9212584  21.3897584
 -16.1567416  14.4992584  20.9377584 -15.1657416  13.3802584  20.6957584
 -18.3167416  12.7492584  19.2307584 -18.9877416  12.1112584  19.4707584
 -18.0547416  12.5012584  18.3447584   0.8722584  27.6852584  36.2427584
   0.1382584  27.3802584  36.7747584   1.2682584  28.3872584  36.7597584
 -18.8107416  18.4662584  29.8557584 -18.1007416  17.9232584  29.5117584
 -18.6707416  19.3252584  29.4567584 -12.1257416  19.7192584  11.0947584
 -11.8437416  20.3992584  10.4827584 -12.2127416  20.1732584  11.9337584
 -16.6087416  37.2202584  18.0117584 -17.1837416  37.7562584  18.5567584
 -15.8677416  37.7912584  17.8087584  -6.6437416  28.7622584  20.4607584
  -6.9097416  28.5382584  19.5697584  -7.0117416  28.0652584  21.0037584
  -3.9697416  28.1232584  24.3087584  -3.1537416  28.2422584  24.7937584
  -3.7637416  28.4052584  23.4177584 -15.4497416  23.3822584  24.7257584
 -16.0657416  23.0952584  25.3997584 -15.0947416  22.5692584  24.3647584
 -21.2307416  10.2712584  22.9987584 -21.1367416   9.8322584  22.1537584
 -21.0257416  11.1882584  22.8177584 -13.0087416  21.9972584  31.3217584
 -12.8947416  21.0472584  31.3097584 -12.5817416  22.3002584  30.5197584
 -16.9287416  19.5682584  38.9727584 -16.1217416  19.6432584  39.4807584
 -17.6107416  19.4102584  39.6257584 -10.1757416  21.5802584  24.9537584
 -10.5437416  21.7722584  24.0907584  -9.8247416  20.6932584  24.8727584
 -18.0997416  23.8542584  33.7477584 -18.2427416  24.3342584  32.9317584
 -17.8357416  24.5252584  34.3767584 -19.8917416  24.8892584  24.9827584
 -19.2787416  25.5392584  25.3247584 -20.5617416  24.8092584  25.6617584
  -4.5557416  19.2472584  38.2167584  -4.8667416  19.3072584  37.3137584
  -3.6077416  19.3612584  38.1527584 -17.7407416  20.6322584  28.7647584
 -16.9747416  20.1502584  28.4527584 -18.1177416  21.0202584  27.9747584
 -18.3367416  15.4252584  31.7147584 -18.4307416  15.1512584  30.8017584
 -18.3467416  16.3812584  31.6807584 -18.4497416  33.0832584  23.7527584
 -17.6247416  33.5152584  23.5297584 -18.9327416  33.7342584  24.2607584
 -16.7207416  23.2922584  22.0627584 -17.3397416  23.8112584  21.5497584
 -16.8107416  23.6262584  22.9557584  -9.3657416  24.6072584  19.1237584
  -9.4277416  24.3752584  18.1977584 -10.0267416  25.2882584  19.2457584
 -14.3047416  12.5722584  19.2317584 -13.9437416  12.8882584  18.4037584
 -13.8257416  11.7622584  19.4087584 -13.5847416  38.3922584  30.1737584
 -13.6857416  37.7532584  29.4687584 -13.0337416  39.0792584  29.7977584
 -16.9087416  34.6072584  26.4037584 -17.8297416  34.8352584  26.2787584
 -16.5507416  34.5612584  25.5177584 -18.6347416  16.4742584  17.1777584
 -19.2067416  16.7652584  17.8877584 -18.4837416  17.2602584  16.6527584
  -1.8757416  16.5562584  28.4727584  -2.3167416  16.8742584  29.2607584
  -1.5107416  17.3432584  28.0677584 -19.2597416  37.6292584  25.0077584
 -19.3537416  37.1652584  24.1757584 -18.7287416  38.3972584  24.7957584
 -15.1607416  24.0232584  11.1807584 -14.6687416  23.3402584  11.6357584
 -14.6567416  24.8232584  11.3307584 -13.0347416  11.3182584  16.2607584
 -12.1857416  11.1692584  16.6787584 -13.0067416  10.7892584  15.4637584
 -13.7807416  24.8332584  26.2297584 -14.0777416  24.4442584  27.0517584
 -14.4037416  24.5152584  25.5757584   2.1382584  19.1432584  33.0537584
   1.5992584  18.5742584  33.6027584   1.5412584  19.8332584  32.7627584
  -9.8147416  14.5132584  31.5247584  -9.5397416  15.4272584  31.4537584
  -9.3517416  14.1832584  32.2947584  -8.8147416  18.4532584  39.7157584
  -8.0877416  17.8932584  39.9877584  -8.4527416  18.9882584  39.0087584
  -7.7997416  15.5512584  38.6677584  -7.5747416  15.4762584  39.5947584
  -8.6567416  15.1312584  38.5937584 -17.0647416  19.9842584  22.9057584
 -17.2967416  20.2032584  23.8087584 -16.2217416  20.4142584  22.7647584
  -7.4597416  16.2962584  24.1897584  -7.3007416  15.5762584  23.5797584
  -6.5867416  16.5622584  24.4787584  -8.8647416  36.1812584  21.8247584
  -9.1947416  36.0712584  22.7167584  -9.5937416  36.5772584  21.3467584
 -21.6067416  26.2462584  40.0687584 -20.9017416  26.5322584  40.6487584
 -21.1597416  25.8042584  39.3477584 -20.3307416  21.8672584  22.1367584
 -19.8397416  21.7522584  22.9507584 -20.4137416  22.8162584  22.0397584
 -18.7257416  19.4062584  20.8107584 -19.4487416  20.0172584  20.9477584
 -18.1197416  19.5862584  21.5307584 -20.3367416  10.7032584  20.1057584
 -20.8857416  11.4412584  19.8387584 -20.9247416   9.9482584  20.0867584
 -19.7867416  24.5242584  22.2157584 -19.8317416  24.5942584  23.1697584
 -19.6977416  25.4282584  21.9127584 -10.2327416  22.6252584  27.3607584
 -10.1187416  22.1792584  26.5207584  -9.4137416  23.1032584  27.4917584
  -7.0957416  20.4972584  38.6447584  -6.2587416  20.0372584  38.7177584
  -6.8937416  21.4012584  38.8867584 -13.3117416  24.3652584  14.4937584
 -13.0407416  24.2332584  15.4027584 -12.9007416  25.1912584  14.2387584
 -14.7617416  26.7182584  27.8897584 -14.9937416  26.0112584  28.4917584
 -14.5647416  26.2752584  27.0647584 -10.4767416  31.8732584  14.6517584
 -11.2357416  31.3572584  14.3807584  -9.7317416  31.4402584  14.2357584
 -18.9507416  36.7012584  16.7297584 -19.2737416  37.5562584  16.4447584
 -18.0667416  36.8732584  17.0517584 -20.6837416  30.5652584  28.4797584
 -19.9647416  30.2432584  27.9377584 -20.4997416  31.4972584  28.5947584
 -17.0037416  24.5122584  14.9317584 -16.2117416  24.0762584  14.6177584
 -17.1887416  24.0952584  15.7737584 -16.0717416  18.8432584  27.5317584
 -15.1357416  18.6462584  27.4937584 -16.4757416  18.0322584  27.8407584
 -13.7047416  28.1642584  32.7197584 -12.9397416  27.8302584  32.2497584
 -13.4597416  29.0542584  32.9747584 -13.9187416  28.8502584  12.2187584
 -14.5237416  28.2122584  12.5967584 -14.0347416  29.6362584  12.7527584
 -14.6757416  25.7562584  20.3037584 -14.6947416  26.6742584  20.0307584
 -14.8097416  25.7852584  21.2507584  -8.7517416  29.1402584  30.4847584
  -9.6247416  28.9542584  30.8287584  -8.6927416  28.6152584  29.6857584
 -14.0247416  23.2612584  21.1317584 -14.9077416  23.1062584  21.4687584
 -14.0767416  24.1202584  20.7117584  -8.0657416  26.8082584  39.4617584
  -7.7827416  27.6832584  39.1927584  -7.5457416  26.6172584  40.2417584
  -8.0047416  23.9272584  27.4807584  -7.8937416  24.7352584  26.9797584
  -7.1337416  23.7402584  27.8307584 -15.0787416  21.6862584  37.3877584
 -15.3067416  21.1692584  38.1607584 -14.3807416  22.2692584  37.6847584
  -4.0007416  27.0792584  40.1617584  -3.6327416  26.1972584  40.1107584
  -3.3087416  27.6482584  39.8247584  -9.1307416  20.4742584  18.9307584
  -9.8487416  20.8812584  19.4167584  -9.4157416  19.5712584  18.7937584
 -18.3747416   8.4042584  19.7717584 -17.8527416   8.7632584  20.4887584
 -19.0987416   9.0222584  19.6687584 -19.6087416  23.7212584  18.6147584
 -20.2067416  23.8482584  17.8787584 -20.0807416  23.1412584  19.2107584
  -9.3147416  18.6822584  26.0407584  -8.6887416  19.3962584  26.1607584
  -8.7957416  17.9692584  25.6657584 -16.4557416  20.9642584  31.4217584
 -17.0427416  21.0702584  30.6727584 -15.9987416  21.8022584  31.4887584
 -20.6127416  10.8672584  25.6397584 -20.8207416  10.4492584  24.8037584
 -20.0477416  11.6042584  25.4047584  -9.8537416  26.6252584  15.3307584
  -9.9807416  26.9122584  16.2347584  -8.9207416  26.7612584  15.1647584
 -11.5987416  21.6652584  20.2507584 -11.3137416  21.6202584  21.1627584
 -12.3377416  22.2732584  20.2597584 -17.5177416  25.0312584  11.8637584
 -16.6087416  24.8352584  12.0927584 -17.7117416  24.4452584  11.1327584
 -16.8457416   9.7302584  21.4587584 -16.0977416  10.3252584  21.5027584
 -17.6047416  10.2842584  21.6427584  -8.7697416  17.7362584  20.6517584
  -9.7207416  17.6622584  20.5697584  -8.4297416  16.9532584  20.2177584
  -8.9657416  24.4272584  30.5347584  -9.4237416  24.0402584  29.7887584
  -8.6537416  25.2732584  30.2107584 -16.7247416  20.1902584  13.7457584
 -17.5447416  20.6832584  13.7087584 -16.0867416  20.8122584  14.0947584
 -10.9267416  20.3752584  13.7597584 -11.2107416  20.3972584  14.6727584
 -10.5227416  19.5142584  13.6537584 -12.2037416  26.6112584  22.9377584
 -13.1357416  26.4482584  23.0807584 -12.1227416  27.5652584  22.9427584
  -6.0047416  29.0012584  26.5887584  -5.2657416  28.4072584  26.4577584
  -6.0867416  29.4702584  25.7577584 -16.4247416  12.3122584  16.8977584
 -15.9827416  12.5952584  17.6977584 -16.0297416  12.8422584  16.2047584
  -4.9847416  19.1052584  35.3337584  -5.7557416  18.6422584  35.0057584
  -4.2477416  18.6892584  34.8877584  -7.9077416  35.0032584  19.4867584
  -7.9707416  35.2592584  20.4077584  -7.9597416  34.0472584  19.4997584
 -16.3747416  17.6752584  20.2877584 -17.1527416  18.2302584  20.2307584
 -16.6137416  16.8772584  19.8157584  -8.2427416  19.7662584  23.1247584
  -7.4937416  20.3562584  23.0357584  -7.9647416  18.9592584  22.6907584
 -16.9117416  27.7832584  21.1167584 -17.5747416  28.0282584  21.7617584
 -17.3837416  27.2472584  20.4797584 -12.2737416  13.2712584  21.7047584
 -12.3597416  13.9422584  21.0267584 -11.4267416  13.4492584  22.1127584
 -14.4337416  31.8982584  23.8057584 -13.6427416  32.3682584  23.5417584
 -15.1527416  32.4322584  23.4687584 -14.8047416  22.2352584  14.9067584
 -14.1227416  22.8492584  14.6357584 -14.8807416  22.3622584  15.8527584
 -14.2147416  28.4422584  22.2767584 -15.1147416  28.1172584  22.2417584
 -14.3057416  29.3892584  22.3847584 -14.3007416  37.9842584  15.3397584
 -13.5467416  38.2502584  14.8127584 -14.1447416  38.3802584  16.1967584
 -18.7687416  35.6902584  20.5727584 -17.8337416  35.4822584  20.5747584
 -18.8067416  36.6212584  20.3547584 -13.1567416  20.2762584  18.4957584
 -12.4027416  20.7122584  18.8927584 -13.5287416  19.7482584  19.2017584
  -4.9657416  19.7672584  31.6927584  -5.2287416  18.9312584  32.0767584
  -5.7827416  20.2572584  31.5997584 -11.1617416  16.5612584  34.2267584
 -10.8867416  15.9282584  34.8907584 -10.8757416  17.4072584  34.5707584
  -4.4677416  17.0702584  27.6357584  -4.6117416  17.8852584  28.1167584
  -3.5517416  16.8502584  27.8047584 -14.9827416  18.1392584  12.5217584
 -14.1077416  17.8292584  12.7537584 -15.4367416  18.2282584  13.3597584
 -15.3397416  17.9882584  37.1087584 -15.7277416  18.5852584  37.7487584
 -14.9377416  18.5622584  36.4577584  -9.3187416  16.7942584  28.4017584
 -10.2347416  16.9072584  28.6577584  -9.0887416  17.6142584  27.9647584
 -17.4147416  18.2712584  32.1637584 -18.3187416  18.5182584  32.3577584
 -16.9247416  19.0912584  32.2187584  -7.1077416  22.0802584  32.1287584
  -7.8777416  22.6462584  32.0727584  -7.0617416  21.8282584  33.0507584
 -17.4307416  14.2852584  15.1597584 -16.8687416  15.0272584  14.9367584
 -17.6797416  14.4382584  16.0717584  -6.6077416  21.2182584  34.9467584
  -5.8547416  20.8152584  35.3787584  -7.2987416  20.5572584  35.0027584
 -14.9267416  34.4622584  34.3307584 -14.2777416  34.6642584  33.6567584
 -15.7337416  34.2952584  33.8437584  -7.8307416  23.5992584  34.5747584
  -7.1757416  24.1532584  34.1497584  -7.3197416  22.9322584  35.0327584
  -5.0837416  17.4492584  25.1507584  -4.5987416  18.2742584  25.1527584
  -5.0437416  17.1452584  26.0577584 -10.6637416  21.4842584  34.1007584
 -10.0107416  21.5912584  33.4087584 -10.9787416  22.3712584  34.2727584
 -13.5067416  13.1832584  27.2987584 -14.3287416  13.2002584  26.8087584
 -13.7757416  13.1442584  28.2167584 -12.5217416  18.3212584  23.2177584
 -11.9657416  17.5492584  23.1097584 -12.6237416  18.4122584  24.1657584
 -11.2867416  19.0892584  35.2527584 -11.0317416  19.9222584  34.8547584
 -12.0527416  18.8092584  34.7517584  -9.9747416  14.5302584  36.4757584
 -10.5847416  15.2342584  36.6937584 -10.5167416  13.8662584  36.0497584
  -0.7327416  17.8212584  40.1037584   0.1532584  17.4612584  40.0507584
  -1.3067416  17.0662584  39.9787584  -4.9697416  14.2352584  28.9717584
  -4.0667416  14.0542584  28.7087584  -5.0207416  15.1902584  29.0147584
  -6.9107416  27.8412584  35.4857584  -7.2187416  27.2722584  36.1907584
  -5.9567416  27.8242584  35.5627584 -10.4967416  26.2722584  29.0947584
 -11.2067416  26.2212584  28.4547584  -9.8467416  26.8442584  28.6867584
 -19.7637416  21.3072584  36.2287584 -19.2717416  21.1592584  35.4217584
 -20.0747416  20.4382584  36.4837584  -8.1267416  37.6732584  37.3207584
  -7.4337416  38.2062584  36.9297584  -8.4687416  38.2112584  38.0347584
 -17.1327416  32.0542584  10.7017584 -16.7117416  32.3032584  11.5247584
 -16.4227416  31.6992584  10.1677584 -19.7787416  26.7022584  12.0527584
 -19.6497416  27.6502584  12.0817584 -18.9337416  26.3532584  11.7717584
 -17.1427416  16.6092584  28.8717584 -16.5437416  16.3132584  29.5577584
 -17.6177416  15.8202584  28.6117584 -16.8957416  14.6982584  33.7957584
 -16.9427416  13.7422584  33.7807584 -17.5487416  14.9812584  33.1567584
 -19.2517416  21.2162584  13.8947584 -20.0847416  20.8482584  14.1917584
 -19.3447416  22.1592584  14.0307584 -10.7267416  10.7222584  36.2747584
 -10.9117416  10.7762584  37.2117584 -11.1317416  11.5062584  35.9037584
 -19.3337416  18.0372584  37.7667584 -19.0977416  17.1512584  37.4927584
 -18.7087416  18.2492584  38.4597584 -13.6567416  38.1232584  33.1237584
 -12.8717416  38.6682584  33.1737584 -13.6387416  37.7562584  32.2397584
 -12.5167416  25.3562584  36.8557584 -12.1937416  24.8182584  36.1317584
 -12.2717416  26.2502584  36.6177584 -17.1107416  14.9952584  38.5847584
 -16.5337416  15.2182584  37.8547584 -16.5767416  15.1412584  39.3657584
 -13.7837416  18.5342584  34.0227584 -14.4417416  19.1272584  34.3857584
 -14.2697416  17.7382584  33.8067584 -20.1707416  17.6222584  23.2747584
 -20.6817416  18.2432584  23.7927584 -20.8227416  17.0412584  22.8847584
 -12.6867416  10.1972584  14.0317584 -13.2367416  10.2682584  13.2507584
 -11.8327416  10.5282584  13.7537584  -7.2497416  33.9842584  36.9057584
  -7.9847416  33.4312584  36.6417584  -6.7167416  34.0682584  36.1147584
 -15.6517416  15.5742584  36.1607584 -16.1327416  15.4602584  35.3417584
 -15.5327416  16.5202584  36.2397584  -8.4957416  19.2542584  35.6197584
  -9.3337416  19.1202584  35.1777584  -8.1967416  18.3722584  35.8397584
 -17.6497416  19.9032584  25.7377584 -18.4137416  19.4832584  26.1317584
 -16.8997416  19.4572584  26.1327584  -6.5017416  26.2802584  29.2697584
  -6.3367416  26.9682584  28.6237584  -6.1397416  25.4882584  28.8737584
 -11.3837416   9.8482584  32.9837584 -11.0087416   9.7292584  33.8567584
 -10.6337416  10.0542584  32.4257584 -18.4327416  10.4692584  33.2117584
 -17.7617416  11.0212584  33.6147584 -19.0527416  11.0882584  32.8277584
 -15.0047416  24.9782584  17.6837584 -15.1917416  24.0482584  17.8087584
 -14.9737416  25.3392584  18.5697584 -13.2607416  23.2792584  38.6107584
 -12.8377416  24.0442584  38.2197584 -13.7467416  23.6292584  39.3577584
 -21.0317416   9.0602584  39.5557584 -20.2317416   9.5062584  39.8337584
 -21.6987416   9.7472584  39.5477584 -10.0757416  20.6482584  29.5777584
 -10.5777416  19.8582584  29.3807584 -10.1547416  21.1852584  28.7887584
 -19.7677416  36.3902584  39.1897584 -19.5407416  36.1962584  38.2797584
 -19.9017416  37.3372584  39.2067584 -13.9837416  27.7132584  39.4927584
 -13.7467416  27.1992584  40.2647584 -14.5787416  28.3852584  39.8247584
 -11.9947416  12.9442584  35.3257584 -12.8937416  13.0072584  35.6487584
 -12.0847416  12.8982584  34.3737584 -14.6477416  19.8422584  40.1367584
 -13.6997416  19.9722584  40.1447584 -14.8167416  19.2562584  40.8747584
 -15.3957416  16.6812584  33.1587584 -15.8027416  15.8232584  33.2767584
 -15.9087416  17.0972584  32.4657584 -16.8477416  10.9202584  40.2717584
 -17.4037416  10.8482584  41.0467584 -17.3317416  10.4622584  39.5847584
   6.1272584   8.3392584  37.9877584   6.4972584   9.0832584  38.4627584
   6.6522584   8.2782584  37.1897584  -3.9797416  11.9652584  32.9697584
  -3.9477416  11.0512584  33.2537584  -3.4697416  11.9822584  32.1597584
  -9.7727416  22.8362584  13.8607584  -9.3767416  23.1112584  13.0347584
 -10.2047416  22.0072584  13.6557584 -13.5867416  19.2662584  31.4207584
 -14.5107416  19.4232584  31.2267584 -13.5787416  18.9782584  32.3337584
 -14.6177416  25.5872584  34.2097584 -13.7377416  25.5022584  34.5757584
 -14.8317416  26.5152584  34.3107584 -15.5957416  16.4402584  16.0057584
 -16.1647416  17.1922584  16.1707584 -14.8377416  16.5832584  16.5717584
 -17.9117416  27.2872584  17.1107584 -17.5147416  28.1322584  17.3237584
 -17.3977416  26.9602584  16.3727584 -21.9287416  37.5672584  11.8367584
 -21.6287416  38.0792584  11.0857584 -21.7687416  36.6572584  11.5867584
 -15.8977416  13.0042584  26.0907584 -16.3797416  13.5562584  25.4757584
 -16.5247416  12.8192584  26.7897584  -7.5557416  16.7132584  35.9527584
  -8.2697416  16.0802584  36.0237584  -7.0847416  16.6382584  36.7827584
 -21.1897416  18.0952584  35.8257584 -20.4807416  17.9712584  36.4567584
 -20.7537416  18.4022584  35.0317584 -17.6917416  12.4402584  37.4927584
 -18.6197416  12.5752584  37.3017584 -17.4577416  13.1642584  38.0727584
 -18.2387416  21.1952584  33.9647584 -18.2797416  22.1412584  34.1067584
 -17.9227416  21.1022584  33.0657584  -1.2647416  10.7132584  34.9257584
  -1.6117416  10.5502584  34.0487584  -1.3637416   9.8782584  35.3827584
  -8.1737416  31.5772584  20.7857584  -7.9857416  32.0422584  19.9697584
  -8.0507416  30.6532584  20.5687584  -7.4907416  20.4892584  26.9537584
  -7.8717416  21.2472584  27.3977584  -6.6337416  20.3762584  27.3647584
 -13.0907416  25.6982584  11.2637584 -12.3257416  25.3232584  10.8277584
 -12.7287416  26.1952584  11.9977584 -13.1637416  36.2612584  35.5917584
 -13.3497416  36.0112584  34.6867584 -12.4167416  36.8562584  35.5277584
 -15.5957416  20.2492584  35.0137584 -16.4367416  20.5702584  34.6857584
 -15.2467416  20.9752584  35.5297584 -22.6397416  17.2422584  30.9907584
 -22.9237416  16.4392584  31.4267584 -22.8257416  17.9372584  31.6217584
 -11.4417416  18.3642584  29.3747584 -12.0557416  17.7062584  29.0497584
 -11.5937416  18.3892584  30.3197584  -8.4197416  29.3692584  11.6707584
  -9.2897416  29.6542584  11.3917584  -7.9577416  29.1752584  10.8557584
 -19.2497416  15.6252584  36.6637584 -18.4497416  15.1062584  36.7477584
 -19.3957416  15.6892584  35.7197584 -21.8157416  22.6142584  40.2587584
 -21.2677416  23.3782584  40.0767584 -21.8577416  22.5712584  41.2137584
 -11.4607416  21.6282584  39.5037584 -12.1007416  22.1752584  39.0487584
 -10.9027416  21.2812584  38.8077584  -5.8437416  25.0482584  33.2497584
  -5.9997416  25.9712584  33.4507584  -4.9437416  25.0222584  32.9257584
 -21.9317416  11.8522584  34.5797584 -22.2507416  10.9752584  34.3687584
 -21.1687416  11.9732584  34.0137584  -8.9137416  28.1542584  27.8697584
  -8.9867416  28.9592584  27.3567584  -8.1017416  27.7482584  27.5647584
 -12.2877416  15.6122584  26.5467584 -12.2627416  14.7582584  26.9787584
 -12.6657416  15.4342584  25.6857584  -6.8957416  36.0792584  31.5497584
  -7.3457416  35.3812584  31.0737584  -7.5087416  36.3332584  32.2387584
  -7.2487416  12.6232584  36.7347584  -7.9437416  13.2812584  36.7457584
  -7.0157416  12.5352584  35.8107584  -5.1697416  38.5082584  33.2707584
  -5.3787416  37.8082584  32.6527584  -5.4987416  38.1912584  34.1117584
 -13.4287416  16.5182584  38.8767584 -14.0047416  16.6112584  38.1177584
 -12.6197416  16.9602584  38.6197584 -14.8597416  15.5312584  30.3557584
 -14.8827416  14.5752584  30.3287584 -14.0197416  15.7402584  30.7657584
  -5.9077416  38.3782584  16.2977584  -6.0567416  37.6432584  16.8937584
  -6.1907416  38.0542584  15.4427584 -12.9767416  35.6632584  16.0207584
 -13.8737416  35.8812584  15.7667584 -12.4387416  35.9772584  15.2937584
  -4.3777416  37.8302584  38.9487584  -4.8637416  37.0122584  38.8457584
  -4.0767416  37.8182584  39.8577584 -21.6847416  14.4882584  20.2607584
 -22.1577416  14.7552584  19.4727584 -20.8857416  15.0152584  20.2517584
 -11.6547416  31.3412584  31.4027584 -11.6217416  30.3932584  31.5257584
 -12.2857416  31.4692584  30.6937584 -11.7197416  34.1412584  17.9447584
 -11.9127416  34.6232584  18.7477584 -12.0467416  34.7042584  17.2427584
 -20.1317416  27.2172584  21.5957584 -19.6227416  27.7642584  22.1937584
 -19.7517416  27.3872584  20.7337584  -8.8397416  23.9662584  16.4107584
  -8.6887416  23.0282584  16.2967584  -9.4237416  24.2042584  15.6907584
 -20.6387416  13.1112584  22.7097584 -21.1147416  13.4522584  21.9527584
 -20.9627416  13.6252584  23.4487584 -13.0847416  36.5042584  19.2357584
 -13.3847416  36.4962584  18.3277584 -13.6597416  37.1322584  19.6727584
 -11.0787416  28.8222584  31.8907584 -11.1857416  27.9492584  31.5137584
 -10.4647416  28.6972584  32.6157584   5.2462584  34.3242584  22.8247584
   5.4422584  35.1652584  23.2377584   4.2922584  34.3122584  22.7447584
 -17.8067416  37.9542584  28.8637584 -17.6727416  38.1032584  29.7997584
 -18.1917416  38.7702584  28.5437584 -12.3007416  28.3012584  16.7297584
 -12.9507416  27.9482584  16.1227584 -12.8117416  28.8122584  17.3577584
 -19.4797416  33.0392584  29.9877584 -18.6007416  32.6632584  29.9427584
 -19.3897416  33.9072584  29.5947584 -22.7687416  29.9122584  15.3187584
 -21.8757416  29.5892584  15.2027584 -23.3167416  29.2712584  14.8647584
  -7.0457416  34.3162584  15.3657584  -7.1657416  33.5342584  14.8257584
  -7.8867416  34.4332584  15.8087584  -5.1987416  29.9062584  32.0697584
  -5.6937416  30.6332584  32.4477584  -5.6017416  29.1222584  32.4427584
  -9.9637416  33.4072584  32.5227584 -10.3187416  32.6882584  31.9997584
  -9.4797416  33.9432584  31.8947584 -18.1287416  30.9242584  27.2047584
 -17.5297416  31.6702584  27.2357584 -17.5957416  30.1782584  27.4807584
 -17.0087416  29.8312584  17.3847584 -16.3527416  30.2142584  17.9667584
 -17.8247416  29.8692584  17.8837584   7.2022584  30.3762584  40.4757584
   6.5072584  30.4542584  41.1297584   7.1372584  29.4752584  40.1617584
  -5.3217416  36.1062584  18.3597584  -6.1677416  35.7232584  18.5897584
  -4.9347416  35.4832584  17.7447584 -20.4967416  27.2212584  16.1437584
 -21.1437416  27.0602584  16.8317584 -19.6517416  27.0862584  16.5727584
  -8.5007416  37.2162584  17.9917584  -8.0507416  36.5812584  18.5477584
  -8.8397416  36.6982584  17.2617584   1.5122584  33.1502584  24.7257584
   2.0902584  32.4172584  24.5177584   1.7422584  33.8262584  24.0877584
 -16.3107416  27.3382584  12.9997584 -16.9027416  27.9532584  12.5667584
 -16.8097416  26.5232584  13.0547584 -16.9547416  35.8222584  40.5587584
 -17.5507416  35.9852584  39.8267584 -17.4447416  35.2432584  41.1427584
  -6.3697416  27.5012584  31.8627584  -6.3027416  26.7902584  31.2257584
  -7.1127416  28.0242584  31.5617584 -15.5417416  31.5232584  14.0117584
 -15.2337416  32.2862584  13.5237584 -15.1607416  31.6262584  14.8837584
 -12.4307416  31.9122584  27.7377584 -13.1787416  31.6412584  28.2697584
 -12.2927416  31.1852584  27.1297584  -7.3617416  33.5352584  24.6337584
  -6.5607416  33.6452584  24.1217584  -7.7257416  32.7022584  24.3337584
 -13.6397416  13.8722584  16.3677584 -13.9557416  14.1052584  15.4947584
 -13.3877416  12.9522584  16.2947584 -18.5337416  28.5812584  23.1887584
 -18.9627416  29.3902584  23.4657584 -17.7727416  28.5042584  23.7647584
 -19.5597416  23.9182584  13.8297584 -19.1707416  24.5762584  13.2537584
 -19.0067416  23.9262584  14.6107584 -18.6277416  26.2152584  19.5487584
 -18.5757416  26.5962584  18.6727584 -19.2147416  25.4662584  19.4507584
 -11.6427416  37.7972584  24.7187584 -10.8467416  37.4562584  25.1267584
 -11.9777416  38.4402584  25.3447584 -11.5357416  37.8582584  11.3737584
 -11.6627416  37.5352584  10.4817584 -12.0807416  38.6442584  11.4237584
 -12.6427416  22.7702584  28.5527584 -13.1007416  21.9332584  28.4727584
 -11.8697416  22.6752584  27.9967584 -16.1017416  33.3012584  17.6437584
 -15.4927416  32.8182584  17.0857584 -16.7547416  33.6532584  17.0387584
 -22.0257416  26.2122584  13.6897584 -21.4317416  26.2672584  14.4387584
 -21.5007416  26.5032584  12.9447584 -15.8937416  34.4902584  23.6367584
 -16.0457416  35.4262584  23.7647584 -14.9457416  34.3882584  23.7207584
 -12.8377416  33.9392584  22.1347584 -12.7457416  34.6382584  22.7827584
 -13.2757416  34.3572584  21.3927584 -11.9007416  30.7062584  12.5647584
 -11.9357416  29.8222584  12.1987584 -12.3727416  31.2472584  11.9317584
 -22.1917416  23.1772584  13.0527584 -22.8207416  23.8882584  13.1717584
 -21.3407416  23.5772584  13.2297584  -6.9537416  32.3172584  18.5587584
  -6.8927416  32.2072584  17.6097584  -6.0497416  32.4442584  18.8447584
 -15.1287416  24.0712584  28.8467584 -15.4257416  24.0402584  29.7557584
 -14.3517416  23.5122584  28.8277584 -18.4417416  30.9962584  21.5247584
 -18.9807416  31.4462584  22.1757584 -17.7507416  31.6232584  21.3107584
 -11.1767416  31.6932584  21.8447584 -10.8927416  31.6872584  20.9307584
 -11.8567416  32.3662584  21.8807584 -19.4987416  30.7832584  24.7937584
 -19.1617416  31.5392584  24.3127584 -18.9887416  30.7662584  25.6037584
  -3.5857416  37.3362584  19.9267584  -4.1247416  37.7242584  20.6157584
  -4.2087416  37.0962584  19.2407584 -21.8147416   8.4292584  36.3567584
 -21.0297416   8.5002584  35.8137584 -21.5647416   8.8232584  37.1927584
 -22.0247416  25.1212584  26.5367584 -22.6287416  24.6872584  27.1397584
 -22.4997416  25.8962584  26.2377584 -16.0677416  32.6122584  20.6047584
 -15.9677416  33.5202584  20.8897584 -15.9377416  32.6422584  19.6567584
 -11.4977416  27.6542584  35.9597584 -10.7667416  27.7652584  35.3517584
 -11.3267416  28.2862584  36.6577584 -19.4757416  27.8072584  28.8207584
 -20.3647416  28.0002584  29.1197584 -18.9117416  28.1112584  29.5307584
 -19.7007416  30.3802584  18.7997584 -19.3877416  31.1372584  19.2957584
 -20.6547416  30.4572584  18.8207584  -7.3697416  31.6882584  30.6287584
  -6.8007416  31.5462584  29.8727584  -7.8057416  30.8472584  30.7627584
 -15.7447416  29.8842584  19.8967584 -15.5437416  30.6462584  20.4407584
 -16.2577416  29.3112584  20.4667584 -10.3227416  34.4542584  39.8537584
 -10.6477416  34.4102584  40.7527584 -11.1057416  34.5962584  39.3217584
 -10.7407416  37.3212584  20.3237584 -11.5787416  36.9732584  20.0177584
 -10.2857416  37.5872584  19.5247584 -11.5367416  34.5292584  27.1457584
 -10.9127416  34.4592584  26.4237584 -11.5367416  33.6602584  27.5487584
 -11.9407416  26.9062584  13.3837584 -12.1347416  27.8382584  13.4887584
 -11.2447416  26.7332584  14.0187584 -19.6327416   9.0172584  15.1937584
 -18.6777416   9.0842584  15.1877584 -19.9287416   9.8422584  15.5777584
 -13.3857416  29.8892584  18.5937584 -13.9897416  29.9162584  19.3357584
 -12.5957416  30.3272584  18.9117584   6.0482584  32.3472584  21.0817584
   5.3262584  31.7242584  20.9917584   5.7392584  32.9812584  21.7287584
 -13.0007416  24.3102584  32.4137584 -13.9107416  24.5852584  32.5217584
 -13.0577416  23.4012584  32.1197584 -14.8127416  29.7562584  25.2797584
 -13.9147416  29.7662584  25.6107584 -14.8287416  30.4362584  24.6067584
   2.6572584  33.6052584  19.2027584   1.7702584  33.8532584  18.9437584
   3.0942584  33.3842584  18.3797584 -14.5657416  28.1592584  35.8827584
 -14.7587416  27.6192584  36.6497584 -13.6107416  28.1582584  35.8227584
   7.0362584  35.3302584  19.5687584   6.4302584  34.6322584  19.3157584
   7.6252584  34.9182584  20.2007584  -9.5327416  34.4552584  16.1837584
  -9.7287416  34.2892584  17.1057584 -10.2937416  34.1182584  15.7117584
  -8.8387416  31.6302584  23.3707584  -9.7457416  31.5522584  23.0727584
  -8.3317416  31.7462584  22.5677584 -14.8407416  31.6352584  35.2197584
 -14.1757416  31.1352584  34.7467584 -14.8517416  32.4892584  34.7857584
   6.0122584  37.3972584  30.1677584   6.5432584  37.2322584  30.9467584
   5.1102584  37.2732584  30.4617584 -15.6067416  10.6192584  30.4167584
 -15.0547416   9.8532584  30.2597584 -16.3577416  10.2782584  30.9037584
  -6.1407416  20.7172584  11.8167584  -6.6627416  21.4722584  11.5437584
  -6.5747416  20.3992584  12.6087584 -11.3627416  24.2982584  34.5637584
 -10.7187416  24.8232584  34.0877584 -12.0207416  24.0722584  33.9067584
 -11.9107416  28.1842584  20.5567584 -12.7027416  28.2412584  21.0907584
 -11.1967416  28.3672584  21.1677584 -16.0377416  36.9072584  24.8527584
 -15.4467416  37.6402584  25.0267584 -16.8427416  37.1322584  25.3187584
 -13.0367416  31.0352584  37.2997584 -13.5237416  31.0732584  36.4757584
 -13.0737416  31.9282584  37.6417584 -10.6937416  26.7832584  18.3567584
 -11.0617416  27.0112584  19.2107584 -11.2417416  27.2522584  17.7267584
   1.8562584  28.0092584  23.1047584   2.0982584  27.3002584  23.6997584
   1.3842584  27.5752584  22.3937584 -21.3527416  38.1452584  26.5127584
 -21.3737416  39.0962584  26.6237584 -20.5217416  37.9742584  26.0697584
 -15.9737416  28.9762584  28.5097584 -15.3557416  28.2792584  28.2907584
 -16.5317416  28.5982584  29.1897584  -3.9387416  36.0442584  13.9687584
  -3.0797416  35.7622584  14.2817584  -4.5537416  35.7112584  14.6217584
 -14.4487416  12.6122584  12.4797584 -14.3577416  13.2552584  13.1827584
 -15.2697416  12.1582584  12.6737584 -11.6047416  37.1972584  14.0887584
 -11.5947416  38.0282584  14.5647584 -11.2017416  37.4002584  13.2437584
 -16.6737416  31.9402584  30.7197584 -16.4797416  31.7232584  29.8077584
 -15.8467416  32.2762584  31.0677584 -12.5957416  36.8682584  22.5817584
 -11.7987416  36.7302584  22.0697584 -12.2837416  37.0382584  23.4707584
  -5.4187416  30.7982584  38.0457584  -5.1677416  31.3072584  38.8167584
  -4.6857416  30.9052584  37.4387584 -21.1257416  36.8842584  18.2017584
 -20.4567416  36.3752584  17.7457584 -21.9107416  36.3382584  18.1637584
   3.1172584  31.1952584  23.8237584   2.9212584  31.1782584  22.8867584
   3.2752584  30.2802584  24.0537584  -3.4967416  35.1112584  24.6517584
  -3.1957416  35.3092584  25.5387584  -3.4447416  34.1572584  24.5877584
 -19.4527416  33.1432584  19.6857584 -19.0507416  33.9792584  19.9207584
 -20.2887416  33.3832584  19.2847584 -21.3937416  35.1892584  11.0157584
 -20.6177416  35.5022584  10.5507584 -21.5717416  34.3302584  10.6337584
   6.8022584  36.3022584  25.9427584   7.2982584  35.5682584  25.5787584
   7.4582584  36.9812584  26.1007584 -21.2947416  27.4942584  24.2257584
 -21.9847416  27.8792584  23.6857584 -20.8017416  26.9372584  23.6227584
 -18.8617416  35.3012584  28.7657584 -19.0437416  35.2542584  27.8277584
 -18.3537416  36.1062584  28.8707584  -9.5267416  30.4862584  26.2317584
 -10.4787416  30.3932584  26.2567584  -9.2867416  30.2602584  25.3337584
  -9.8507416  29.8002584  16.9837584  -9.3207416  30.2402584  16.3187584
 -10.4037416  29.1952584  16.4887584 -19.3657416  14.6152584  12.5247584
 -18.8037416  15.2822584  12.1297584 -18.8307416  14.2332584  13.2207584
 -15.6117416  30.9092584  38.7327584 -16.1987416  30.7992584  37.9847584
 -14.7327416  30.8342584  38.3597584 -22.6697416  11.9932584  16.4567584
 -22.8147416  11.0792584  16.2147584 -22.7337416  12.0012584  17.4117584
  -7.4667416  29.2872584  38.7537584  -8.0987416  29.9632584  38.5117584
  -6.6267416  29.6182584  38.4337584  -2.9027416   8.7252584  36.9347584
  -3.4997416   8.4872584  37.6437584  -2.5107416   9.5512584  37.2177584
   3.5692584  31.5822584  32.7667584   3.1002584  32.2752584  32.3027584
   4.4352584  31.5642584  32.3597584 -14.1107416  13.3702584  36.8387584
 -14.2407416  13.2692584  37.7817584 -14.8397416  13.9212584  36.5527584
 -17.7517416   9.4342584  38.2367584 -17.5697416  10.2432584  37.7597584
 -17.8827416   8.7772584  37.5527584 -10.1907416  30.4832584  35.1467584
 -10.0937416  30.2042584  36.0577584  -9.6667416  29.8572584  34.6467584
 -18.0587416  34.8642584  12.7007584 -17.9757416  34.1432584  13.3247584
 -18.8787416  35.2952584  12.9387584 -13.5307416  34.8972584  25.3227584
 -13.0757416  34.6912584  26.1387584 -13.6977416  35.8392584  25.3717584
   0.5652584  37.7882584  27.5907584   0.5012584  36.8332584  27.6057584
   0.1882584  38.0402584  26.7487584  -6.5507416  31.8832584  33.0777584
  -6.9017416  31.9872584  32.1937584  -7.3107416  31.9902584  33.6517584
 -15.8117416  24.4292584  31.3537584 -16.3857416  24.1712584  32.0757584
 -15.8127416  25.3862584  31.3777584  -6.3957416  36.3652584  26.6597584
  -6.0137416  36.8872584  27.3637584  -5.8247416  36.5222584  25.9067584
  -8.6647416  32.5932584  34.7037584  -9.1757416  31.8122584  34.9137584
  -9.2247416  33.0942584  34.1107584  -9.2687416  25.4312584  32.9657584
  -8.7057416  24.8212584  33.4427584  -9.3777416  25.0322584  32.1027584
  -9.3237416  27.9142584  34.1437584  -9.2047416  27.1052584  33.6457584
  -8.6107416  27.9112584  34.7817584 -17.2887416  29.2982584  11.2537584
 -18.1937416  29.3372584  10.9437584 -16.9377416  30.1712584  11.0797584
 -18.8867416  32.1672584  38.5237584 -19.0317416  31.2312584  38.3837584
 -18.1997416  32.2072584  39.1887584   0.5342584  33.8022584  36.8887584
   1.0672584  34.2192584  36.2107584  -0.1627416  34.4332584  37.0667584
  -1.7067416  35.6312584  36.8977584  -2.0547416  35.7732584  36.0177584
  -1.4567416  36.5042584  37.2007584  -8.1087416  34.2182584  30.2627584
  -7.9787416  34.2282584  29.3137584  -8.1697416  33.2902584  30.4867584
 -11.1487416  37.9222584  35.7427584 -11.2867416  38.7102584  36.2687584
 -10.2127416  37.7392584  35.8257584 -17.1797416  33.9662584  32.6867584
 -16.6717416  34.3612584  31.9777584 -17.5397416  33.1652584  32.3067584
 -14.3467416  10.9882584  35.5487584 -14.7147416  10.2462584  36.0277584
 -14.3377416  11.7032584  36.1847584 -19.2367416  29.4072584  38.5507584
 -20.1107416  29.2942584  38.1777584 -18.6427416  29.0952584  37.8697584
 -11.1087416  28.5132584  40.3927584 -11.9967416  28.3332584  40.0837584
 -10.7977416  27.6752584  40.7327584 -12.1697416  29.5092584  26.3677584
 -11.7557416  28.7602584  26.7957584 -11.9177416  29.4302584  25.4477584
 -15.0057416  26.0412584  37.5857584 -14.8557416  26.5272584  38.3967584
 -14.1357416  25.7472584  37.3167584  -8.1127416  36.0352584  40.0737584
  -9.0107416  35.7952584  40.3007584  -8.2037416  36.6272584  39.3267584
  -8.2047416  37.2382584  34.1297584  -7.6577416  36.7972584  34.7807584
  -8.1577416  38.1642584  34.3647584 -14.7947416  34.0472584  39.7287584
 -15.4597416  34.4322584  40.2997584 -15.2377416  33.9302584  38.8887584
  -5.5707416  34.2742584  34.8497584  -4.8147416  34.1912584  34.2687584
  -6.1627416  33.5742584  34.5747584  -6.4237416  33.4622584  27.1427584
  -6.8257416  33.4132584  26.2757584  -6.1127416  34.3642584  27.2127584
 -22.9087416  34.1262584  33.5747584 -23.0217416  33.3302584  34.0937584
 -21.9687416  34.1662584  33.3977584 -14.0737416  33.7202584  13.4037584
 -13.3537416  33.7902584  12.7777584 -14.5137416  34.5692584  13.3587584
 -17.3207416  25.4622584  36.0787584 -17.4297416  24.5552584  36.3667584
 -16.4627416  25.7192584  36.4167584 -12.8877416  11.9882584  32.4437584
 -13.6917416  11.8952584  32.9547584 -12.2977416  11.3242584  32.7997584
 -11.4687416  37.3862584  38.5177584 -12.4187416  37.3802584  38.3997584
 -11.1157416  37.2312584  37.6417584 -14.3227416  21.0912584  23.3947584
 -14.0487416  21.6452584  22.6647584 -13.5577416  20.5472584  23.5837584
 -17.9377416  30.4402584  15.1127584 -17.3227416  30.7712584  14.4577584
 -17.4187416  30.3692584  15.9147584 -21.6227416  32.3022584  12.9017584
 -21.1027416  31.8062584  12.2697584 -21.1847416  32.1562584  13.7397584
 -21.5307416  29.3552584  32.9457584 -21.2807416  28.6872584  32.3077584
 -20.8447416  30.0192584  32.8797584 -15.3937416  34.6362584  30.6767584
 -15.3817416  35.0832584  29.8307584 -14.5647416  34.8812584  31.0887584
 -11.9617416  10.6252584  38.7487584 -12.8417416  10.4262584  38.4287584
 -12.0857416  10.8442584  39.6717584 -10.6457416  29.5282584  37.7917584
 -11.4527416  30.0232584  37.6477584 -10.3677416  29.7742584  38.6737584
  -1.1607416  34.2922584  29.8677584  -0.9227416  33.9232584  29.0177584
  -1.6687416  33.6012584  30.2947584 -20.8967416  34.4772584  37.0577584
 -21.7767416  34.8152584  36.8957584 -20.9967416  33.9012584  37.8157584
   3.6942584  31.8442584  14.5097584   4.4612584  31.7302584  13.9487584
   3.3462584  32.7022584  14.2687584 -10.6997416  36.7712584  32.7717584
  -9.9437416  36.7822584  33.3587584 -10.8927416  37.6952584  32.6117584
 -15.9017416  38.0932584  35.0217584 -15.4017416  37.5592584  35.6387584
 -15.2697416  38.3342584  34.3447584 -13.9117416  30.1052584  30.4767584
 -14.5757416  30.0252584  29.7917584 -13.8207416  29.2192584  30.8277584
  -8.2717416  11.7912584  39.3567584  -8.6347416  10.9222584  39.1807584
  -7.7527416  11.9952584  38.5787584  -5.7047416  24.1592584  36.5267584
  -5.0317416  24.8392584  36.4847584  -6.5127416  24.6332584  36.7217584
  -9.7417416   9.9882584  30.6197584  -8.8417416  10.0382584  30.9427584
  -9.8667416   9.0652584  30.3997584 -14.5537416   9.7012584  38.7627584
 -15.2107416   9.8422584  39.4447584 -14.6177416   8.7672584  38.5587584
 -12.6707416  30.4482584  33.7857584 -12.5107416  30.9332584  32.9757584
 -11.8107416  30.3832584  34.2007584  -7.6747416  25.6952584  37.0157584
  -7.5657416  26.1262584  37.8637584  -8.2617416  24.9612584  37.1937584
 -15.5277416  34.8452584  36.9147584 -16.4527416  34.7192584  36.7017584
 -15.0867416  34.8602584  36.0657584  -8.3537416  29.3442584  14.3977584
  -8.4387416  29.2012584  13.4547584  -7.7837416  28.6362584  14.6967584
 -15.6667416  35.9812584  28.3037584 -15.9777416  35.7102584  27.4397584
 -16.2657416  36.6802584  28.5657584   2.2872584  11.4472584  36.0237584
   1.9532584  11.1282584  35.1857584   2.8302584  10.7312584  36.3537584
  -7.0087416  37.1572584  13.8727584  -7.1447416  36.2312584  13.6727584
  -7.6767416  37.6142584  13.3617584 -13.7207416   9.6102584  11.7947584
 -14.4047416   8.9402584  11.7707584 -14.1337416  10.3882584  11.4217584
 -14.7737416  37.6022584  21.1567584 -14.1947416  37.2802584  21.8467584
 -15.2957416  38.2832584  21.5807584 -14.3837416  37.0212584  38.4167584
 -14.7097416  36.4372584  37.7317584 -14.7857416  36.6942584  39.2217584
  -9.6847416  23.6692584  36.9787584  -9.8067416  22.7202584  36.9557584
  -9.6037416  23.9222584  36.0587584 -17.3047416   8.6102584  31.5167584
 -17.6547416   9.2372584  32.1497584 -17.4427416   7.7552584  31.9257584
 -10.5637416  14.7802584  18.4967584  -9.7427416  14.3532584  18.2537584
 -11.2297416  14.3362584  17.9717584 -12.0327416  14.6452584  40.5857584
 -11.6857416  15.3232584  41.1647584 -12.6527416  15.1062584  40.0197584
   0.0182584  30.2802584  40.5217584   0.3032584  29.5952584  41.1277584
   0.5912584  30.1802584  39.7617584 -22.7457416  15.1622584  28.2027584
 -22.0277416  15.7662584  28.3917584 -23.0887416  15.4552584  27.3587584
   5.4142584  31.7572584  25.4877584   4.7572584  31.8872584  24.8047584
   6.2292584  31.5992584  25.0097584  -3.2727416  25.6742584  37.2657584
  -2.5147416  25.3072584  36.8107584  -3.2687416  25.2462584  38.1217584
 -22.3437416  31.3252584  23.8777584 -22.5937416  30.4172584  23.7077584
 -21.4467416  31.2702584  24.2067584  -8.0087416  19.6932584  31.1147584
  -8.6857416  20.1662584  30.6307584  -7.4287416  20.3792584  31.4477584
  -4.3407416  32.2382584  19.8077584  -3.9687416  33.0502584  19.4657584
  -3.8917416  31.5452584  19.3237584 -17.1907416  12.3502584  28.5817584
 -16.6767416  11.8492584  29.2137584 -17.6967416  11.6902584  28.1067584
 -12.2987416  15.5692584  31.5337584 -11.4587416  15.2272584  31.2257584
 -12.1777416  15.6892584  32.4757584 -17.3757416  17.3592584  23.9657584
 -18.2617416  17.2782584  24.3177584 -17.3997416  18.1572584  23.4367584
 -21.5637416  33.8162584  21.7087584 -20.9227416  33.2332584  21.3017584
 -22.3657416  33.2962584  21.7567584 -22.2477416  11.8712584  12.7257584
 -21.9027416  12.3762584  11.9897584 -23.1867416  11.8042584  12.5517584
   2.6462584  31.4352584  16.9667584   3.3572584  31.0262584  17.4607584
   3.0192584  31.5992584  16.1007584  -4.7897416  15.4412584  37.8387584
  -5.4807416  14.9952584  38.3277584  -4.7067416  14.9392584  37.0277584
 -21.1107416  22.9972584  16.2737584 -21.7327416  22.9472584  15.5467584
 -21.0447416  22.0982584  16.5947584  -2.9107416  16.2172584  39.8537584
  -3.3507416  15.9522584  39.0457584  -3.5327416  16.0032584  40.5477584
   6.4112584  32.2002584  16.4577584   6.5592584  32.7532584  15.6907584
   6.6242584  31.3152584  16.1607584   1.3772584  12.8642584  39.8947584
   1.1132584  13.4562584  39.1907584   0.6282584  12.8522584  40.4917584
   4.2142584   9.0492584  33.9757584   3.3052584   8.8072584  33.7967584
   4.6522584   8.2182584  34.1597584   4.2482584  28.7852584  24.1527584
   3.3992584  28.5002584  23.8157584   4.6262584  27.9992584  24.5467584
  -0.2747416  32.3472584  26.8887584   0.5132584  32.2602584  27.4247584
   0.0522584  32.5012584  26.0027584 -22.6327416  20.2672584  22.2257584
 -22.3657416  20.0392584  23.1157584 -21.9067416  20.7872584  21.8827584
  -4.4637416  34.1812584  16.6627584  -3.9407416  33.4342584  16.3707584
  -5.2097416  34.2002584  16.0637584 -18.0137416  34.2472584  15.8677584
 -18.4537416  35.0712584  16.0797584 -18.7267416  33.6292584  15.7077584
   0.4352584  31.6002584  21.1117584   0.1642584  32.1592584  20.3827584
  -0.2557416  30.9412584  21.1767584   2.9312584  34.9482584  26.6197584
   2.7332584  34.0532584  26.3457584   2.0792584  35.3272584  26.8357584
 -22.7757416  14.7692584  17.9087584 -23.3537416  14.3282584  17.2847584
 -22.0977416  15.1712584  17.3647584 -17.3957416  10.0732584  24.7207584
 -16.4537416   9.9802584  24.5737584 -17.6867416  10.6792584  24.0397584
  -1.8277416  19.7852584  38.7237584  -1.3217416  19.1732584  39.2577584
  -1.3347416  19.8542584  37.9057584 -14.2567416  12.8332584  30.0477584
 -13.6497416  12.5302584  30.7237584 -14.9917416  12.2212584  30.0947584
   4.8672584  15.6642584  39.1127584   5.3862584  16.4382584  38.8927584
   4.7072584  15.2342584  38.2727584  -5.7607416  18.2112584  40.7147584
  -5.8737416  19.1482584  40.8697584  -5.4467416  18.1532584  39.8117584
 -18.6217416  27.6952584  26.1817584 -19.5317416  27.8932584  25.9607584
 -18.5697416  27.8272584  27.1277584 -20.1107416  12.5242584  32.4907584
 -20.5007416  12.0212584  31.7757584 -19.8067416  13.3322584  32.0757584
   7.0602584  30.9192584  34.3387584   7.7132584  30.4452584  33.8247584
   6.3162584  31.0232584  33.7447584   0.1652584  38.2052584  17.2997584
  -0.4887416  38.5422584  17.9117584   0.8372584  37.8132584  17.8587584
 -10.6667416  15.8902584  22.8417584  -9.7267416  15.8652584  22.6627584
 -10.8397416  15.0842584  23.3277584   3.1282584  29.5332584  39.5557584
   2.6232584  29.4522584  38.7477584   3.6302584  30.3412584  39.4457584
 -20.1697416  17.3612584  19.2537584 -19.7467416  17.5632584  20.0887584
 -21.0357416  17.7622584  19.3207584 -20.8397416  16.6862584  29.0467584
 -19.9887416  17.0902584  29.2147584 -21.3977416  16.9962584  29.7597584
 -16.7407416  11.9392584  13.9547584 -17.0937416  12.8032584  14.1687584
 -17.4307416  11.5202584  13.4397584  -5.9587416  38.0962584  21.2397584
  -6.4857416  37.5102584  21.7827584  -6.5277416  38.3192584  20.5037584
 -16.9197416  18.7152584  15.9837584 -17.1707416  19.2712584  16.7217584
 -16.9337416  19.3002584  15.2267584  -0.7557416  36.2822584  31.9977584
  -0.5147416  35.7472584  31.2417584  -0.3987416  37.1492584  31.8017584
   3.1982584  36.8852584  31.1967584   2.5812584  36.3032584  30.7517584
   2.8722584  37.7662584  31.0117584  -6.8547416  24.3792584  11.2947584
  -7.7367416  24.0412584  11.4477584  -6.4157416  23.6872584  10.7997584
  -2.3397416  36.0322584  27.1217584  -2.7917416  36.8422584  27.3597584
  -2.8937416  35.3352584  27.4717584  -5.6267416  32.9202584  22.2137584
  -5.6727416  32.5262584  21.3427584  -4.9297416  33.5732584  22.1457584
 -18.7077416  25.6682584  31.5237584 -19.2487416  26.0642584  30.8407584
 -18.0217416  26.3152584  31.6917584   0.2342584  34.1332584  18.3677584
  -0.5897416  34.5492584  18.1147584   0.2522584  33.3142584  17.8727584
 -21.5517416  15.2452584  24.7827584 -22.4397416  15.1722584  25.1297584
 -21.2587416  16.1152584  25.0527584 -21.6027416  26.7662584  18.7787584
 -21.0197416  26.8942584  19.5277584 -22.3927416  26.3762584  19.1527584
 -11.9557416  26.4772584  31.1837584 -11.2897416  26.3112584  30.5167584
 -12.1137416  25.6222584  31.5837584   4.3052584  36.2902584  24.9197584
   3.8232584  35.7832584  25.5727584   5.2032584  36.3152584  25.2497584
 -17.6377416  22.9532584  26.9977584 -16.9657416  22.8712584  27.6737584
 -18.3867416  23.3422584  27.4487584   0.0402584  22.8182584  39.9057584
   0.2662584  23.7282584  40.1007584  -0.4667416  22.8662584  39.0957584
 -18.4007416  19.3042584  11.6677584 -19.1067416  19.8772584  11.9667584
 -17.6827416  19.4682584  12.2797584   1.3322584  17.4052584  34.9957584
   0.6562584  16.8642584  34.5887584   2.1142584  16.8532584  34.9957584
 -14.2927416  27.3592584  15.3137584 -14.3617416  26.4292584  15.5297584
 -14.9327416  27.4912584  14.6147584 -21.8917416  20.6322584  14.1327584
 -22.0397416  21.2942584  13.4577584 -22.5617416  19.9682584  13.9687584
  -6.5447416  14.0972584  22.4247584  -5.6507416  13.7872584  22.5647584
  -7.0797416  13.3042584  22.4457584   5.1822584  17.6472584  36.0387584
   5.7732584  17.6982584  36.7897584   4.6692584  18.4542584  36.0817584
   6.6012584  28.8992584  23.1027584   5.7092584  28.9072584  23.4497584
   6.4892584  28.8852584  22.1527584  -0.1147416  19.8042584  36.7717584
  -0.0427416  18.9902584  36.2727584   0.7772584  19.9822584  37.0707584
  -0.4637416  26.2572584  24.3477584  -0.3277416  26.9912584  24.9457584
  -1.3107416  26.4342584  23.9377584 -21.8277416  20.2182584  17.0857584
 -22.0007416  20.0032584  16.1687584 -21.9687416  19.3962584  17.5557584
  -3.3767416  37.4522584  11.4887584  -2.4197416  37.4442584  11.4827584
  -3.6167416  36.9322584  12.2557584   0.2862584  13.0152584  37.2367584
   0.9862584  12.5872584  36.7447584  -0.3507416  13.2752584  36.5717584
   6.5962584  29.7372584  27.4227584   6.3122584  30.5492584  27.0027584
   7.4852584  29.9222584  27.7247584 -14.8837416   9.3632584  17.6807584
 -14.4207416   9.8382584  18.3707584 -15.1947416  10.0462584  17.0867584
  -9.1007416   9.2422584  39.4137584  -9.9977416   9.1092584  39.7187584
  -8.5617416   9.1262584  40.1967584  -3.2547416  21.8892584  39.9397584
  -3.1857416  21.3672584  40.7397584  -2.8677416  21.3382584  39.2597584
   1.0072584  25.2232584  40.3337584   0.9702584  25.8162584  41.0837584
   1.8482584  25.4132584  39.9177584 -20.2037416  24.8192584  38.2247584
 -20.4377416  24.4762584  37.3627584 -19.2717416  24.6192584  38.3177584
   1.5772584  24.8852584  37.1397584   1.6922584  25.7712584  36.7977584
   1.2312584  25.0122584  38.0237584   5.3122584  21.5102584  34.6037584
   5.9552584  21.1102584  35.1907584   4.6462584  21.8712584  35.1887584
 -21.8307416  22.3572584  37.4157584 -21.5287416  22.4442584  38.3197584
 -21.0627416  22.0492584  36.9347584   1.3062584  10.1692584  38.7347584
   1.9742584   9.8642584  38.1207584   1.5992584  11.0432584  38.9927584
 -22.1237416  12.9152584  37.1997584 -21.9847416  12.7692584  36.2647584
 -21.9297416  13.8432584  37.3297584   5.2242584  34.2042584  10.8207584
   4.8452584  34.8182584  10.1907584   5.9842584  34.6652584  11.1757584
 -19.8897416  18.6902584  33.5397584 -20.4807416  19.2582584  33.0447584
 -19.3067416  19.2942584  33.9997584  -1.6127416  13.4342584  35.0277584
  -2.4567416  13.6982584  35.3927584  -1.5507416  12.4982584  35.2177584
   3.7372584  14.0132584  36.5587584   3.0142584  13.4002584  36.4257584
   4.5162584  13.5282584  36.2857584   5.9532584  36.6182584  13.6677584
   6.0692584  35.7192584  13.9757584   6.6712584  36.7562584  13.0507584
 -20.1577416  15.5062584  33.9497584 -19.8907416  16.3182584  33.5177584
 -20.7027416  15.0582584  33.3017584  -0.3737416  32.9052584  11.4387584
  -1.1497416  32.8332584  11.9947584  -0.3007416  32.0492584  11.0167584
 -19.5717416  27.1322584  35.4107584 -20.1967416  26.4082584  35.4347584
 -18.7237416  26.7252584  35.5877584 -17.6237416  23.6792584  39.3507584
 -17.5567416  23.0802584  38.6077584 -16.7157416  23.8512584  39.6017584
  -0.6197416  15.7832584  33.8537584  -0.1737416  15.6642584  33.0157584
  -0.8217416  14.8942584  34.1467584   0.2482584  35.2562584  26.5757584
  -0.6887416  35.2542584  26.7697584   0.3712584  34.5162584  25.9807584
 -21.0927416  13.1822584  14.8467584 -21.4137416  12.7652584  14.0467584
 -21.7207416  12.9232584  15.5207584   3.9052584  37.3282584  11.8437584
   4.7252584  36.9772584  12.1907584   3.5252584  37.8172584  12.5737584
   1.4492584  31.9772584  28.9877584   1.4692584  31.1912584  29.5347584
   2.3422584  32.0582584  28.6517584   4.6022584  36.4782584  38.9777584
   4.0592584  37.0092584  39.5617584   5.2622584  37.0872584  38.6457584
 -16.6447416  29.9652584  35.9987584 -16.1837416  30.7432584  35.6857584
 -16.0057416  29.2572584  35.9127584  -5.2177416  14.3792584  32.4847584
  -4.8797416  13.4852584  32.5347584  -4.5667416  14.8542584  31.9677584
  -4.1737416  12.2272584  38.3187584  -3.3607416  11.7292584  38.2337584
  -4.2207416  12.4542584  39.2477584   6.4112584  20.1442584  36.9007584
   6.5792584  19.5882584  37.6617584   6.7692584  20.9982584  37.1437584
  -2.7387416  15.0362584  31.2967584  -2.3957416  14.1742584  31.0617584
  -1.9597416  15.5712584  31.4487584   3.3352584  20.8322584  38.2467584
   2.6262584  20.6672584  38.8677584   4.0962584  21.0222584  38.7947584
  -4.9267416  16.0592584  34.7417584  -5.0487416  15.1102584  34.7117584
  -5.7907416  16.4052584  34.9677584  -1.2427416  24.1172584  36.0397584
  -0.5647416  23.9372584  36.6907584  -1.4197416  23.2672584  35.6357584
   7.0432584  11.0282584  39.3277584   6.5052584  11.3582584  40.0467584
   6.9132584  11.6602584  38.6207584   5.8912584  13.4152584  34.5927584
   6.4222584  14.0992584  35.0017584   6.4642584  12.6492584  34.5677584
 -20.2897416  12.2252584  39.6137584 -20.4667416  13.1642584  39.6567584
 -20.8017416  11.9172584  38.8657584 -12.9167416  20.2402584  27.7987584
 -12.6057416  19.6582584  28.4917584 -12.6837416  19.7902584  26.9857584
 -20.5527416  24.3962584  35.3317584 -21.3137416  23.9032584  35.0267584
 -19.7997416  23.8862584  35.0327584  -2.6707416  24.6542584  39.5977584
  -2.8847416  23.7392584  39.4187584  -2.2297416  24.6362584  40.4477584
  -2.8037416  17.6382584  34.0287584  -2.0057416  17.1102584  34.0757584
  -3.5027416  17.0392584  34.2927584  -0.8797416  26.8932584  38.0437584
  -1.1207416  27.6522584  38.5747584  -1.6007416  26.2752584  38.1657584
  -2.1467416  29.0882584  39.1727584  -1.9997416  29.3672584  40.0757584
  -2.2417416  29.9042584  38.6807584 -22.6857416  15.6082584  35.6557584
 -21.8057416  15.7422584  35.3017584 -23.1287416  16.4462584  35.5207584
 -17.5287416  19.9902584  18.1677584 -17.9617416  19.3572584  18.7417584
 -17.2317416  20.6832584  18.7567584 -16.7547416  14.4732584  23.6097584
 -16.0447416  14.3602584  22.9777584 -16.8267416  15.4202584  23.7237584
   3.0712584  22.6532584  36.0017584   3.1132584  22.0312584  36.7287584
   2.5472584  23.3792584  36.3387584   4.1622584  34.5572584  32.7947584
   5.0842584  34.6482584  33.0387584   3.9992584  35.2862584  32.1967584
 -22.2977416  18.2002584  24.5177584 -22.9797416  18.2152584  25.1897584
 -22.5817416  17.5232584  23.9027584  -1.4557416  32.0182584  37.7747584
  -0.7547416  32.5722584  37.4307584  -1.9867416  32.6072584  38.3097584
 -19.6697416  24.3432584  28.0617584 -19.5187416  25.1702584  28.5187584
 -20.4827416  24.4822584  27.5757584 -22.9327416  17.6622584  38.0697584
 -22.3667416  17.9312584  37.3457584 -22.3537416  17.1832584  38.6627584
  -9.0647416  14.8872584  26.2587584  -8.5617416  15.2822584  25.5467584
  -9.3787416  15.6322584  26.7717584   5.3812584  20.9512584  39.9687584
   6.2312584  21.3902584  39.9647584   5.3982584  20.4022584  40.7527584
 -18.8927416  22.7502584  30.7157584 -19.4827416  23.4802584  30.9007584
 -18.9367416  22.6412584  29.7657584  -3.4537416  17.5292584  30.5847584
  -3.8367416  18.3322584  30.9377584  -3.6947416  16.8502584  31.2157584
 -17.3457416  22.7512584  36.7567584 -17.9557416  22.1162584  36.3797584
 -16.5387416  22.2562584  36.8937584 -16.6307416  12.0802584  34.4807584
 -15.7747416  11.8682584  34.8537584 -17.1797416  12.2792584  35.2387584
 -22.1557416  22.5582584  34.1447584 -23.0947416  22.3822584  34.2007584
 -21.8257416  21.9052584  33.5277584 -20.7527416  20.9392584  32.2917584
 -20.0287416  21.4832584  31.9827584 -21.4877416  21.1732584  31.7257584
 -18.1677416  16.6402584  10.9807584 -18.2567416  17.5762584  11.1597584
 -17.2267416  16.4742584  11.0357584 -19.2277416  13.7282584  25.3427584
 -18.5197416  14.1812584  24.8837584 -19.9597416  14.3452584  25.3237584
  -8.4387416  17.0292584  31.1107584  -8.3797416  17.9812584  31.1877584
  -8.4087416  16.8622584  30.1687584 -20.3727416  37.8822584  31.9417584
 -21.0397416  37.1972584  31.9237584 -20.6627416  38.5172584  31.2867584
 -21.0967416  12.9932584  27.9817584 -21.5387416  12.5472584  27.2587584
 -21.7257416  13.6512584  28.2777584 -19.0207416  11.5732584  16.1607584
 -18.0667416  11.6502584  16.1937584 -19.3037416  12.3182584  15.6307584
  -4.2907416  34.1352584  11.3367584  -4.1937416  35.0372584  11.6427584
  -3.6097416  34.0342584  10.6707584   1.7712584  34.6182584  30.3877584
   2.5052584  34.1682584  29.9687584   0.9952584  34.2772584  29.9417584
  -0.8357416  38.1652584  14.9097584  -1.3147416  38.9872584  15.0057584
  -0.5137416  37.9702584  15.7897584  -3.0287416  32.4322584  24.1797584
  -2.5287416  32.5752584  23.3757584  -2.4267416  31.9612584  24.7557584
  -2.4777416  32.5422584  13.4437584  -3.2017416  33.0312584  13.0547584
  -2.5567416  32.7042584  14.3837584 -21.7737416  34.0382584  24.5907584
 -22.5977416  33.6742584  24.9127584 -21.5757416  33.5262584  23.8067584
 -20.8727416  38.1222584  29.2617584 -20.5597416  37.2182584  29.2747584
 -21.2957416  38.2172584  28.4077584 -20.7267416  36.7682584  14.1277584
 -21.1587416  37.2092584  13.3967584 -20.3397416  37.4782584  14.6407584
  -5.3477416  28.0492584  17.5527584  -6.2357416  27.7042584  17.6467584
  -5.0857416  27.7982584  16.6667584   2.6952584  33.7892584  39.4057584
   3.5432584  33.3502584  39.3297584   2.2372584  33.5672584  38.5947584
  -2.8747416  31.9812584  16.0717584  -3.3477416  31.1492584  16.0887584
  -1.9607416  31.7402584  16.2227584   0.2372584  30.0602584  24.1107584
  -0.2377416  30.0442584  23.2797584   1.1452584  29.8742584  23.8717584
  -1.2807416  35.4582584  14.5537584  -0.9737416  35.1372584  13.7057584
  -1.0057416  36.3752584  14.5767584  -0.2407416  31.6172584  16.8687584
  -0.2927416  30.8332584  17.4157584   0.6772584  31.6642584  16.6017584
 -20.0707416  31.6762584  32.3237584 -19.9177416  32.0452584  31.4547584
 -20.2597416  32.4342584  32.8767584 -19.7537416  35.2022584  26.1917584
 -20.3947416  34.7282584  25.6627584 -19.6907416  36.0632584  25.7787584
 -21.5987416  32.8132584  39.5957584 -22.0547416  32.0232584  39.8847584
 -20.6877416  32.5392584  39.4877584   2.8662584  29.3242584  33.8697584
   3.1312584  30.1272584  33.4217584   2.2212584  28.9252584  33.2867584
  -1.4977416  29.7322584  21.5267584  -2.4347416  29.8152584  21.7037584
  -1.4507416  29.3562584  20.6477584  -2.8657416  34.3972584  38.9997584
  -3.7517416  34.7532584  38.9367584  -2.4247416  34.7092584  38.2097584
  -3.0937416  29.9742584  18.2107584  -3.6887416  29.3062584  17.8697584
  -2.2957416  29.4942584  18.4297584   4.6642584  34.2702584  17.1267584
   4.9512584  33.3672584  17.2567584   4.5892584  34.3642584  16.1767584
   4.3472584  33.6572584  29.4807584   4.4242584  33.0252584  28.7667584
   5.1362584  34.1942584  29.4127584  -5.7817416  31.1442584  28.2887584
  -5.9257416  30.4492584  27.6457584  -6.0307416  31.9482584  27.8337584
 -11.0117416  12.6152584  26.0857584 -11.7487416  12.8212584  26.6617584
 -10.3097416  13.1962584  26.3777584   1.8212584  38.1472584  13.8847584
   0.8742584  38.0342584  13.9607584   2.1752584  37.7382584  14.6747584
   1.3482584  36.9032584  19.2907584   2.1802584  36.4302584  19.3057584
   0.7172584  36.2902584  19.6677584   4.8232584  36.7772584  18.2057584
   4.7602584  35.8252584  18.1247584   4.7482584  36.9422584  19.1457584
   3.9112584  31.6712584  27.7367584   4.2402584  31.9642584  26.8867584
   3.6342584  30.7672584  27.5887584  -4.7047416  37.7682584  24.4687584
  -3.9817416  38.3912584  24.5367584  -4.2857416  36.9372584  24.2467584
 -21.9237416  24.3272584  31.6157584 -21.7867416  24.0812584  32.5307584
 -22.7637416  23.9302584  31.3837584   6.9052584  35.4692584  28.7717584
   6.7442584  35.9332584  27.9497584   6.4572584  35.9932584  29.4347584
 -15.6727416  32.0642584  28.1367584 -15.8467416  32.8762584  27.6627584
 -15.3237416  31.4682584  27.4737584 -17.9937416  29.0392584  30.9537584
 -17.9077416  29.9672584  31.1717584 -17.9197416  28.5872584  31.7937584
   2.4962584  34.4442584  22.3927584   2.2452584  34.0312584  21.5667584
   1.8702584  35.1602584  22.5027584  -7.3457416  31.8962584  13.6557584
  -6.8627416  31.7142584  12.8497584  -7.4407416  31.0412584  14.0757584
  -9.2957416  36.3532584  25.9827584  -8.3597416  36.2842584  26.1697584
  -9.5427416  35.4842584  25.6667584   2.3602584  33.5932584  12.4307584
   1.4492584  33.3022584  12.4467584   2.5812584  33.6392584  11.5007584
  -1.6527416  35.6002584  17.1677584  -1.3877416  35.3732584  16.2767584
  -1.2707416  36.4642584  17.3197584  -5.7527416  35.2952584  38.8247584
  -6.4137416  35.5432584  39.4707584  -6.2547416  34.9282584  38.0967584
  -6.7597416  12.9982584  26.3907584  -6.7257416  12.9442584  27.3457584
  -7.3537416  13.7282584  26.2137584 -19.9267416  35.8972584  22.8867584
 -20.7827416  35.4722584  22.8347584 -19.5387416  35.7642584  22.0227584
 -22.6357416  34.3062584  14.2617584 -22.2037416  33.7642584  13.6007584
 -21.9627416  34.9272584  14.5397584  -1.9857416  34.2162584  22.1657584
  -2.2027416  34.3792584  21.2477584  -2.0107416  35.0802584  22.5757584
  -4.3137416  29.3272584  21.9597584  -4.5167416  28.6972584  21.2687584
  -4.9357416  30.0412584  21.8247584   4.7862584  37.3572584  21.0577584
   4.6452584  37.8052584  21.8917584   5.6952584  37.0612584  21.0937584
 -12.9087416  36.7582584  28.1877584 -12.2587416  36.0572584  28.1407584
 -13.7457416  36.3212584  28.0297584 -22.1837416  33.5192584  30.4457584
 -21.2557416  33.3022584  30.5327584 -22.2157416  34.1502584  29.7277584
 -10.5367416  24.8592584  39.3957584  -9.8557416  25.5312584  39.4257584
 -10.3527416  24.3662584  38.5957584   2.1332584  36.9862584  23.5137584
   2.8612584  36.5002584  23.9007584   2.5432584  37.7462584  23.1017584
   3.4542584  29.0102584  27.1527584   3.1532584  28.1702584  26.8067584
   4.3452584  28.8382584  27.4577584 -21.8857416  38.3932584  20.5677584
 -21.3877416  37.8322584  19.9717584 -22.7287416  38.5172584  20.1317584
 -22.6777416   8.7132584  16.7637584 -22.6727416   8.6412584  15.8087584
 -22.1327416   7.9852584  17.0617584  -2.7007416  34.7482584  19.5767584
  -2.4237416  34.8032584  18.6627584  -2.9277416  35.6472584  19.8137584
   0.8312584  37.6182584  37.9937584   1.0562584  37.0902584  38.7597584
   0.9082584  38.5232584  38.2957584   2.0272584  26.5692584  26.1497584
   2.3112584  25.7092584  26.4577584   1.4562584  26.8962584  26.8447584
   3.1332584  31.5112584  20.7937584   2.2342584  31.3332584  21.0687584
   3.0712584  32.3132584  20.2747584 -14.9607416  13.0882584  39.4507584
 -14.5857416  13.1732584  40.3267584 -15.4437416  12.2622584  39.4747584
 -22.2557416  31.4672584  19.0057584 -22.6207416  31.8722584  18.2197584
 -22.9497416  31.5452584  19.6607584  -1.7147416  11.2812584  38.3377584
  -1.1777416  10.7002584  38.8767584  -1.1007416  11.9372584  38.0067584
  -3.7127416  33.6902584  28.2507584  -3.9617416  33.9552584  29.1357584
  -4.2877416  32.9512584  28.0507584   1.8822584  34.9302584  34.6087584
   2.6542584  34.8422584  34.0497584   1.2142584  34.3922584  34.1827584
  -3.0177416  35.7472584  33.9127584  -2.2677416  35.5772584  33.3427584
  -3.2037416  36.6792584  33.7917584   3.2722584  37.0902584  15.9467584
   3.7112584  37.3802584  16.7467584   3.7242584  36.2812584  15.7057584
  -0.8077416  35.9812584  11.6377584   0.1172584  36.0462584  11.4007584
  -1.0787416  35.1232584  11.3107584   5.8962584  31.6702584  30.9287584
   6.7502584  32.0712584  30.7697584   5.2752584  32.2402584  30.4737584
  -3.6227416  30.8262584  29.9927584  -3.9307416  30.4862584  30.8327584
  -4.4107416  30.8812584  29.4527584   6.1192584  27.7892584  39.7327584
   5.6872584  27.4642584  38.9427584   6.9382584  27.2972584  39.7787584
  -0.3537416  31.2662584  35.0067584   0.4832584  31.7312584  35.0267584
  -0.8857416  31.7562584  34.3797584  -8.1927416  32.7442584  39.4877584
  -9.0507416  33.1672584  39.5087584  -7.7177416  33.1982584  38.7917584
 -21.3227416  28.9472584  36.7407584 -20.8157416  28.3182584  36.2267584
 -21.9287416  29.3382584  36.1107584   3.5942584  18.5632584  40.2897584
   3.5742584  19.1142584  41.0717584   3.4462584  19.1712584  39.5647584
   6.2932584  34.8662584  36.6057584   5.7172584  34.9202584  37.3677584
   5.7852584  34.3812584  35.9547584   4.6222584  33.0632584  35.1837584
   3.8072584  32.9752584  34.6907584   4.5612584  32.3972584  35.8687584
   3.6452584  26.6772584  34.5997584   3.7912584  27.5082584  34.1487584
   2.7102584  26.5032584  34.4887584   3.8212584  13.6032584  40.7757584
   2.9972584  13.2062584  40.4937584   3.8162584  14.4732584  40.3767584
 -19.9637416  34.1462584  33.7687584 -19.0377416  33.9312584  33.6537584
 -19.9587416  35.0022584  34.1977584   1.0702584  30.2002584  37.7997584
   1.7562584  30.6812584  37.3377584   0.2862584  30.7392584  37.6917584
   3.2572584  25.9722584  39.4907584   3.9472584  25.3422584  39.2857584
   3.6182584  26.8182584  39.2257584   7.0992584  36.4672584  32.4857584
   6.5692584  36.8162584  33.2027584   7.2352584  35.5472584  32.7127584
   4.7492584  31.7352584  39.0747584   5.3882584  32.2352584  39.5817584
   5.2522584  31.3712584  38.3467584   5.0032584  26.3522584  37.2577584
   4.5532584  26.7382584  36.5067584   5.0642584  25.4202584  37.0477584
  -1.9837416  28.8732584  35.1657584  -1.3647416  29.6002584  35.2307584
  -1.9967416  28.6522584  34.2337584   3.3102584   9.1112584  37.1587584
   3.0802584   8.5222584  36.4407584   4.1032584   8.7312584  37.5367584
   1.2912584  20.6902584  40.0047584   0.8982584  21.5632584  39.9967584
   0.5542584  20.0972584  40.1547584 -19.0107416  11.0742584  12.1557584
 -19.6477416  11.5322584  11.6067584 -19.5377416  10.4882584  12.6977584
   6.2712584  30.4442584  37.1137584   6.9862584  29.9402584  37.5027584
   6.6622584  30.8622584  36.3467584   3.6512584  30.5372584  36.4447584
   4.4932584  30.1202584  36.6277584   3.3292584  30.0922584  35.6597584
   1.4632584  37.6492584  35.2827584   1.4802584  37.3832584  36.2017584
   1.6632584  36.8492584  34.7977584  -3.4097416  31.2622584  35.8577584
  -3.2987416  30.5402584  35.2387584  -2.6947416  31.1542584  36.4837584
  -2.0687416  12.3362584  30.8667584  -1.9437416  12.3862584  29.9197584
  -1.1977416  12.4872584  31.2327584   6.2132584  37.2472584  34.9527584
   7.0552584  37.5982584  35.2447584   6.0392584  36.5162584  35.5457584
  -5.9707416   9.6442584  37.7097584  -5.3307416   9.0292584  38.0697584
  -5.6837416  10.5012584  38.0247584   3.3512584  34.8382584  14.5287584
   2.8602584  35.6472584  14.6717584   3.0032584  34.4892584  13.7087584
  -5.7667416  36.8462584  35.4377584  -5.2257416  36.9402584  36.2217584
  -5.6317416  35.9402584  35.1607584   0.8132584  33.3872584  32.6957584
   0.0452584  33.0332584  32.2467584   1.3432584  33.7722584  31.9977584
  -1.5537416  31.9512584  31.4077584  -2.2887416  31.5162584  30.9767584
  -1.9507416  32.4272584  32.1367584 -19.6337416  38.1322584  34.4847584
 -19.9117416  37.9342584  33.5907584 -19.1977416  38.9822584  34.4187584
 -20.1027416  29.5952584  11.1547584 -20.9437416  30.0532584  11.1637584
 -19.9167416  29.4552584  10.2257584  -4.2327416  35.0072584  30.5987584
  -3.4097416  35.4402584  30.8247584  -4.8717416  35.3722584  31.2097584
   1.1512584  10.1012584  33.9817584   0.2772584  10.3802584  34.2567584
   1.1942584   9.1752584  34.2207584   5.9992584  24.5602584  39.6587584
   6.6082584  25.2892584  39.5437584   6.5602584  23.7892584  39.7417584
  -1.7877416  30.3902584  27.9657584  -2.1657416  30.4952584  28.8397584
  -1.3497416  31.2232584  27.7917584 -17.7677416  28.6942584  33.9377584
 -17.3737416  29.2402584  34.6177584 -18.5737416  28.3622584  34.3337584
   1.7592584  36.3472584  40.2077584   2.1212584  35.5022584  39.9417584
   2.3752584  36.6772584  40.8617584 -20.7427416  10.8762584  30.2597584
 -20.7707416  11.5352584  29.5657584 -21.4147416  10.2402584  30.0147584
  -6.7787416  37.6942584  29.2097584  -7.7157416  37.6072584  29.0327584
  -6.6707416  37.3592584  30.0997584  -2.4207416  32.6422584  33.8237584
  -2.7237416  33.5412584  33.9497584  -2.9677416  32.1202584  34.4107584
 -21.9377416  14.6512584  11.5247584 -21.6087416  15.1052584  10.7487584
 -21.1937416  14.6322584  12.1257584 -18.2437416  34.2962584  36.5937584
 -19.1787416  34.4622584  36.7107584 -18.1057416  33.4252584  36.9677584
 -12.8057416  34.6672584  32.5887584 -11.9787416  34.1962584  32.6937584
 -12.5457416  35.5792584  32.4527584  -9.6927416  37.6812584  28.7237584
  -9.3857416  37.0922584  28.0347584 -10.4617416  38.1092584  28.3477584
  -3.4047416  25.4382584  44.0817584  -3.4997416  24.5602584  44.4517584
  -4.1697416  25.5432584  43.5167584 -15.8427416  35.7082584  44.7527584
 -16.5477416  35.1512584  45.0827584 -15.8177416  36.4472584  45.3607584
 -22.1707416  22.5072584  49.1557584 -22.9937416  22.8272584  48.7837584
 -21.8977416  21.8062584  48.5647584 -11.5807416  19.7822584  46.3237584
 -12.1647416  20.2322584  46.9337584 -11.1277416  19.1312584  46.8597584
  -0.7267416  17.9382584  46.9557584  -0.8157416  18.1722584  46.0317584
  -0.0677416  18.5452584  47.2937584   5.2302584  13.9972584  46.1687584
   4.2902584  14.1172584  46.0327584   5.4092584  13.1132584  45.8497584
  -4.4437416  29.7932584  41.3007584  -5.0977416  30.4832584  41.1867584
  -4.5277416  29.2512584  40.5167584 -12.1217416  24.4182584  47.2847584
 -11.6727416  25.2592584  47.3687584 -12.9297416  24.5272584  47.7867584
 -20.4177416  29.2042584  44.4657584 -19.6247416  29.7402584  44.4667584
 -20.1337416  28.3542584  44.8017584  -9.2767416  23.1122584  41.1547584
  -9.9057416  22.4112584  41.3257584  -9.7287416  23.6972584  40.5467584
 -11.0467416  31.5522584  49.1627584 -11.1167416  32.3162584  48.5917584
 -10.7307416  30.8522584  48.5907584  -8.2757416  34.4832584  42.5107584
  -7.6517416  34.4772584  41.7847584  -7.8347416  33.9982584  43.2087584
 -21.2177416  16.3022584  45.7577584 -20.8937416  15.5142584  45.3227584
 -20.4317416  16.7282584  46.1007584   5.7282584  24.0052584  48.2627584
   5.6422584  24.5832584  47.5047584   5.3812584  24.5152584  48.9947584
 -14.4527416  14.8182584  44.1217584 -13.7887416  15.3402584  43.6717584
 -14.8187416  15.4112584  44.7787584 -15.0127416  22.2042584  47.7117584
 -15.6477416  21.9432584  48.3787584 -14.4417416  21.4422584  47.6127584
  -0.3517416  12.0392584  43.2837584  -1.1247416  12.0092584  42.7197584
  -0.0087416  12.9262584  43.1727584 -11.6147416  34.7312584  42.1777584
 -11.5557416  35.6812584  42.2797584 -11.1677416  34.3792584  42.9467584
  -8.2737416  27.9602584  48.4267584  -8.7857416  27.3952584  49.0047584
  -8.8997416  28.6142584  48.1147584 -17.8897416  22.5142584  46.6737584
 -17.5637416  21.7152584  47.0887584 -18.4107416  22.9422584  47.3527584
 -19.8067416  32.1552584  45.6127584 -20.2467416  31.5652584  46.2247584
 -19.0157416  31.6842584  45.3507584 -15.4297416  37.2462584  42.2997584
 -16.1257416  36.7212584  41.9047584 -15.5197416  37.0942584  43.2407584
  -7.1167416  27.0412584  45.1687584  -6.9397416  27.0372584  44.2287584
  -6.5587416  26.3472584  45.5207584 -16.7997416   9.3142584  45.0827584
 -15.9507416   8.9052584  44.9137584 -16.6457416  10.2492584  44.9507584
 -13.3947416  17.1552584  47.1837584 -12.9057416  16.8892584  47.9627584
 -12.7877416  17.7162584  46.7007584 -14.1437416  31.5192584  46.3467584
 -13.6427416  31.1372584  47.0677584 -13.5017416  31.6442584  45.6477584
 -10.6157416  11.4612584  47.2687584 -10.2237416  11.9412584  47.9987584
  -9.9807416  10.7742584  47.0637584 -18.3167416  12.7492584  49.2307584
 -18.9877416  12.1112584  49.4707584 -18.0547416  12.5012584  48.3447584
 -10.1907416  11.1762584  43.2657584 -10.5587416  11.5462584  42.4637584
  -9.5317416  11.8132584  43.5437584  -9.2017416  18.1272584  43.7877584
  -8.7247416  17.3802584  44.1477584  -8.5857416  18.8582584  43.8507584
 -12.1257416  19.7192584  41.0947584 -11.8437416  20.3992584  40.4827584
 -12.2127416  20.1732584  41.9337584 -16.6087416  37.2202584  48.0117584
 -17.1837416  37.7562584  48.5567584 -15.8677416  37.7912584  47.8087584
  -0.6477416  20.4152584  49.3137584  -0.6037416  21.3662584  49.2217584
   0.0112584  20.0832584  48.7037584 -12.6637416  16.9782584  43.5657584
 -12.0067416  17.0392584  42.8727584 -12.2127416  17.2872584  44.3517584
 -10.2907416  17.8262584  47.6637584  -9.8827416  17.3902584  46.9147584
 -10.1887416  17.2072584  48.3867584 -14.3047416  12.5722584  49.2317584
 -13.9437416  12.8882584  48.4037584 -13.8257416  11.7622584  49.4087584
 -18.6347416  16.4742584  47.1777584 -19.2067416  16.7652584  47.8877584
 -18.4837416  17.2602584  46.6527584 -15.1607416  24.0232584  41.1807584
 -14.6687416  23.3402584  41.6357584 -14.6567416  24.8232584  41.3307584
 -13.0347416  11.3182584  46.2607584 -12.1857416  11.1692584  46.6787584
 -13.0067416  10.7892584  45.4637584  -3.0307416  25.4552584  47.4127584
  -3.1807416  26.2302584  46.8727584  -3.6767416  25.5232584  48.1157584
 -13.3117416  24.3652584  44.4937584 -13.0407416  24.2332584  45.4027584
 -12.9007416  25.1912584  44.2387584 -10.4767416  31.8732584  44.6517584
 -11.2357416  31.3572584  44.3807584  -9.7317416  31.4402584  44.2357584
 -18.9507416  36.7012584  46.7297584 -19.2737416  37.5562584  46.4447584
 -18.0667416  36.8732584  47.0517584  -3.8157416  16.7812584  46.5887584
  -2.8977416  16.8122584  46.8597584  -3.9617416  15.8692584  46.3397584
 -17.0037416  24.5122584  44.9317584 -16.2117416  24.0762584  44.6177584
 -17.1887416  24.0952584  45.7737584  -7.1717416  20.0852584  44.3427584
  -6.3517416  19.6082584  44.4657584  -7.3427416  20.4932584  45.1927584
 -13.9187416  28.8502584  42.2187584 -14.5237416  28.2122584  42.5967584
 -14.0347416  29.6362584  42.7527584  -9.3627416   8.9982584  45.7447584
  -8.5457416   8.9772584  46.2417584  -9.0887416   8.9442584  44.8287584
 -10.9457416  17.3052584  41.4377584 -11.3337416  18.1362584  41.1657584
 -10.0017416  17.4602584  41.4117584  -8.0747416  13.4642584  47.3557584
  -7.5187416  12.6882584  47.2867584  -7.5387416  14.1032584  47.8257584
  -9.1307416  20.4742584  48.9307584  -9.8487416  20.8812584  49.4167584
  -9.4157416  19.5712584  48.7937584 -19.6087416  23.7212584  48.6147584
 -20.2067416  23.8482584  47.8787584 -20.0807416  23.1412584  49.2107584
  -9.8537416  26.6252584  45.3307584  -9.9807416  26.9122584  46.2347584
  -8.9207416  26.7612584  45.1647584 -17.5177416  25.0312584  41.8637584
 -16.6087416  24.8352584  42.0927584 -17.7117416  24.4452584  41.1327584
  -4.8427416  13.2122584  40.9537584  -5.7547416  13.4802584  41.0697584
  -4.6087416  12.7932584  41.7827584 -16.7247416  20.1902584  43.7457584
 -17.5447416  20.6832584  43.7087584 -16.0867416  20.8122584  44.0947584
 -10.9267416  20.3752584  43.7597584 -11.2107416  20.3972584  44.6727584
 -10.5227416  19.5142584  43.6537584 -16.4247416  12.3122584  46.8977584
 -15.9827416  12.5952584  47.6977584 -16.0297416  12.8422584  46.2047584
  -1.8137416  25.2512584  42.1057584  -1.4567416  26.1252584  41.9467584
  -2.4017416  25.3642584  42.8517584  -4.8327416  18.6302584  44.9597584
  -4.2427416  19.3742584  45.0847584  -4.5807416  18.0072584  45.6407584
 -14.8047416  22.2352584  44.9067584 -14.1227416  22.8492584  44.6357584
 -14.8807416  22.3622584  45.8527584 -14.3007416  37.9842584  45.3397584
 -13.5467416  38.2502584  44.8127584 -14.1447416  38.3802584  46.1967584
  -4.9497416  14.2312584  46.9397584  -4.0327416  14.0462584  46.7377584
  -5.4387416  13.8412584  46.2157584 -14.9827416  18.1392584  42.5217584
 -14.1077416  17.8292584  42.7537584 -15.4367416  18.2282584  43.3597584
   4.3262584  21.9242584  47.1957584   3.4062584  22.1582584  47.0737584
   4.7242584  22.7082584  47.5737584 -17.4307416  14.2852584  45.1597584
 -16.8687416  15.0272584  44.9367584 -17.6797416  14.4382584  46.0717584
   0.7802584  19.7102584  43.9607584  -0.1117416  20.0562584  43.9427584
   1.3052584  20.3782584  43.5197584  -5.7477416  12.7252584  44.3137584
  -5.4837416  11.8622584  44.6327584  -6.4737416  12.5472584  43.7147584
   6.0242584  15.7062584  42.9077584   6.0632584  15.4122584  43.8177584
   6.7332584  15.2312584  42.4727584 -17.1327416  32.0542584  40.7017584
 -16.7117416  32.3032584  41.5247584 -16.4227416  31.6992584  40.1677584
 -19.7787416  26.7022584  42.0527584 -19.6497416  27.6502584  42.0817584
 -18.9337416  26.3532584  41.7717584 -19.2517416  21.2162584  43.8947584
 -20.0847416  20.8482584  44.1917584 -19.3447416  22.1592584  44.0307584
 -12.6867416  10.1972584  44.0317584 -13.2367416  10.2682584  43.2507584
 -11.8327416  10.5282584  43.7537584 -15.0047416  24.9782584  47.6837584
 -15.1917416  24.0482584  47.8087584 -14.9737416  25.3392584  48.5697584
  -9.7727416  22.8362584  43.8607584  -9.3767416  23.1112584  43.0347584
 -10.2047416  22.0072584  43.6557584 -15.5957416  16.4402584  46.0057584
 -16.1647416  17.1922584  46.1707584 -14.8377416  16.5832584  46.5717584
  -1.7417416  18.0742584  42.6337584  -1.2737416  17.4512584  43.1887584
  -1.2617416  18.0652584  41.8047584 -17.9117416  27.2872584  47.1107584
 -17.5147416  28.1322584  47.3237584 -17.3977416  26.9602584  46.3727584
 -21.9287416  37.5672584  41.8367584 -21.6287416  38.0792584  41.0857584
 -21.7687416  36.6572584  41.5867584  -6.6547416  25.2692584  47.5327584
  -7.3597416  24.9752584  46.9547584  -7.0967416  25.5112584  48.3467584
 -13.0907416  25.6982584  41.2637584 -12.3257416  25.3232584  40.8277584
 -12.7287416  26.1952584  41.9977584  -8.4197416  29.3692584  41.6707584
  -9.2897416  29.6542584  41.3917584  -7.9577416  29.1752584  40.8557584
   4.1232584  20.3422584  42.4807584   4.1142584  20.9172584  43.2467584
   4.8272584  19.7182584  42.6557584  -6.9727416  11.7452584  42.1127584
  -6.4137416  10.9692584  42.0747584  -7.3177416  11.8362584  41.2247584
  -5.9077416  38.3782584  46.2977584  -6.0567416  37.6432584  46.8937584
  -6.1907416  38.0542584  45.4427584 -12.9767416  35.6632584  46.0207584
 -13.8737416  35.8812584  45.7667584 -12.4387416  35.9772584  45.2937584
 -11.7197416  34.1412584  47.9447584 -11.9127416  34.6232584  48.7477584
 -12.0467416  34.7042584  47.2427584  -8.8397416  23.9662584  46.4107584
  -8.6887416  23.0282584  46.2967584  -9.4237416  24.2042584  45.6907584
 -13.0847416  36.5042584  49.2357584 -13.3847416  36.4962584  48.3277584
 -13.6597416  37.1322584  49.6727584  -8.9467416  15.1732584  43.0897584
  -9.7387416  15.6362584  42.8137584  -9.2557416  14.5282584  43.7257584
 -12.3007416  28.3012584  46.7297584 -12.9507416  27.9482584  46.1227584
 -12.8117416  28.8122584  47.3577584  -9.7157416  13.5602584  45.2837584
  -9.1237416  13.5512584  46.0357584 -10.4087416  12.9422584  45.5167584
 -22.7687416  29.9122584  45.3187584 -21.8757416  29.5892584  45.2027584
 -23.3167416  29.2712584  44.8647584  -7.0457416  34.3162584  45.3657584
  -7.1657416  33.5342584  44.8257584  -7.8867416  34.4332584  45.8087584
 -17.0087416  29.8312584  47.3847584 -16.3527416  30.2142584  47.9667584
 -17.8247416  29.8692584  47.8837584  -5.3217416  36.1062584  48.3597584
  -6.1677416  35.7232584  48.5897584  -4.9347416  35.4832584  47.7447584
 -20.4967416  27.2212584  46.1437584 -21.1437416  27.0602584  46.8317584
 -19.6517416  27.0862584  46.5727584  -8.5007416  37.2162584  47.9917584
  -8.0507416  36.5812584  48.5477584  -8.8397416  36.6982584  47.2617584
 -16.3107416  27.3382584  42.9997584 -16.9027416  27.9532584  42.5667584
 -16.8097416  26.5232584  43.0547584 -15.5417416  31.5232584  44.0117584
 -15.2337416  32.2862584  43.5237584 -15.1607416  31.6262584  44.8837584
 -13.6397416  13.8722584  46.3677584 -13.9557416  14.1052584  45.4947584
 -13.3877416  12.9522584  46.2947584 -19.5597416  23.9182584  43.8297584
 -19.1707416  24.5762584  43.2537584 -19.0067416  23.9262584  44.6107584
 -11.5357416  37.8582584  41.3737584 -11.6627416  37.5352584  40.4817584
 -12.0807416  38.6442584  41.4237584 -16.1017416  33.3012584  47.6437584
 -15.4927416  32.8182584  47.0857584 -16.7547416  33.6532584  47.0387584
 -22.0257416  26.2122584  43.6897584 -21.4317416  26.2672584  44.4387584
 -21.5007416  26.5032584  42.9447584 -11.9007416  30.7062584  42.5647584
 -11.9357416  29.8222584  42.1987584 -12.3727416  31.2472584  41.9317584
 -22.1917416  23.1772584  43.0527584 -22.8207416  23.8882584  43.1717584
 -21.3407416  23.5772584  43.2297584  -2.7207416  11.4662584  42.0377584
  -2.3737416  10.7822584  41.4647584  -3.5817416  11.1422584  42.3027584
 -11.9407416  26.9062584  43.3837584 -12.1347416  27.8382584  43.4887584
 -11.2447416  26.7332584  44.0187584  -9.1627416   8.8772584  42.4667584
  -9.9437416   8.6542584  41.9607584  -9.1577416   9.8342584  42.4927584
 -19.6327416   9.0172584  45.1937584 -18.6777416   9.0842584  45.1877584
 -19.9287416   9.8422584  45.5777584 -13.3857416  29.8892584  48.5937584
 -13.9897416  29.9162584  49.3357584 -12.5957416  30.3272584  48.9117584
   2.6572584  33.6052584  49.2027584   1.7702584  33.8532584  48.9437584
   3.0942584  33.3842584  48.3797584  -9.5327416  34.4552584  46.1837584
  -9.7287416  34.2892584  47.1057584 -10.2937416  34.1182584  45.7117584
  -6.1407416  20.7172584  41.8167584  -6.6627416  21.4722584  41.5437584
  -6.5747416  20.3992584  42.6087584  -8.3057416  21.2862584  46.4917584
  -8.4337416  21.1082584  47.4237584  -9.1887416  21.2752584  46.1217584
  -3.7807416  23.1322584  46.2257584  -3.6277416  23.9752584  46.6517584
  -3.9847416  22.5342584  46.9447584 -10.6937416  26.7832584  48.3567584
 -11.0617416  27.0112584  49.2107584 -11.2417416  27.2522584  47.7267584
   2.4132584  23.3002584  41.9727584   2.5112584  22.5202584  41.4257584
   1.6302584  23.7352584  41.6317584  -3.9387416  36.0442584  43.9687584
  -3.0797416  35.7622584  44.2817584  -4.5537416  35.7112584  44.6217584
 -14.4487416  12.6122584  42.4797584 -14.3577416  13.2552584  43.1827584
 -15.2697416  12.1582584  42.6737584 -11.6047416  37.1972584  44.0887584
 -11.5947416  38.0282584  44.5647584 -11.2017416  37.4002584  43.2437584
 -21.1257416  36.8842584  48.2017584 -20.4567416  36.3752584  47.7457584
 -21.9107416  36.3382584  48.1637584 -21.3937416  35.1892584  41.0157584
 -20.6177416  35.5022584  40.5507584 -21.5717416  34.3302584  40.6337584
  -0.4407416  23.0642584  49.3077584  -1.0667416  23.1002584  50.0307584
   0.3312584  23.5262584  49.6357584  -9.8507416  29.8002584  46.9837584
  -9.3207416  30.2402584  46.3187584 -10.4037416  29.1952584  46.4887584
 -19.3657416  14.6152584  42.5247584 -18.8037416  15.2822584  42.1297584
 -18.8307416  14.2332584  43.2207584  -5.7947416  32.0322584  40.7187584
  -5.3397416  32.8022584  41.0597584  -6.6657416  32.3522584  40.4827584
  -4.5477416  21.0322584  48.0557584  -5.0997416  20.4042584  47.5897584
  -5.1477416  21.4842584  48.6487584 -22.6697416  11.9932584  46.4567584
 -22.8147416  11.0792584  46.2147584 -22.7337416  12.0012584  47.4117584
 -18.0587416  34.8642584  42.7007584 -17.9757416  34.1432584  43.3247584
 -18.8787416  35.2952584  42.9387584 -17.2887416  29.2982584  41.2537584
 -18.1937416  29.3372584  40.9437584 -16.9377416  30.1712584  41.0797584
 -14.0737416  33.7202584  43.4037584 -13.3537416  33.7902584  42.7777584
 -14.5137416  34.5692584  43.3587584 -17.9377416  30.4402584  45.1127584
 -17.3227416  30.7712584  44.4577584 -17.4187416  30.3692584  45.9147584
 -21.6227416  32.3022584  42.9017584 -21.1027416  31.8062584  42.2697584
 -21.1847416  32.1562584  43.7397584   3.6942584  31.8442584  44.5097584
   4.4612584  31.7302584  43.9487584   3.3462584  32.7022584  44.2687584
  -4.3197416  16.4622584  42.2267584  -3.6067416  16.8162584  42.7577584
  -4.7557416  17.2342584  41.8647584  -8.3537416  29.3442584  44.3977584
  -8.4387416  29.2012584  43.4547584  -7.7837416  28.6362584  44.6967584
  -7.0087416  37.1572584  43.8727584  -7.1447416  36.2312584  43.6727584
  -7.6767416  37.6142584  43.3617584 -13.7207416   9.6102584  41.7947584
 -14.4047416   8.9402584  41.7707584 -14.1337416  10.3882584  41.4217584
  -8.1357416  16.2302584  45.9747584  -7.4437416  16.1092584  45.3247584
  -8.4067416  15.3412584  46.2037584 -10.5637416  14.7802584  48.4967584
  -9.7427416  14.3532584  48.2537584 -11.2297416  14.3362584  47.9717584
   2.1542584  23.5512584  47.0347584   1.2652584  23.7782584  46.7607584
   2.6852584  24.3042584  46.7767584  -3.4187416  20.4582584  42.3277584
  -4.3617416  20.5532584  42.1927584  -3.2457416  19.5312584  42.1607584
   4.9542584  11.2192584  44.5687584   5.4092584  10.4522584  44.2207584
   4.2342584  11.3692584  43.9567584  -6.9367416  15.4512584  41.2797584
  -7.6037416  15.2862584  41.9467584  -6.3497416  16.0912584  41.6807584
   2.6442584  15.4042584  46.1187584   2.0792584  14.6412584  45.9977584
   2.9572584  15.6132584  45.2377584  -6.0987416  15.4402584  44.5057584
  -5.6097416  15.9492584  43.8587584  -6.0217416  14.5342584  44.2057584
   6.7262584   9.1342584  43.9957584   7.3892584   9.1972584  43.3087584
   6.3362584   8.2682584  43.8737584 -22.2477416  11.8712584  42.7257584
 -21.9027416  12.3762584  41.9897584 -23.1867416  11.8042584  42.5517584
   2.6462584  31.4352584  46.9667584   3.3572584  31.0262584  47.4607584
   3.0192584  31.5992584  46.1007584  -2.9777416  20.5962584  45.4597584
  -2.5187416  20.7562584  46.2837584  -3.2517416  21.4642584  45.1647584
 -21.1107416  22.9972584  46.2737584 -21.7327416  22.9472584  45.5467584
 -21.0447416  22.0982584  46.5947584  -1.1807416  27.9212584  41.8227584
  -0.4027416  27.5172584  42.2057584  -1.4207416  28.6132584  42.4387584
   6.4112584  32.2002584  46.4577584   6.5592584  32.7532584  45.6907584
   6.6242584  31.3152584  46.1607584   2.9302584  27.5802584  48.7997584
   2.0432584  27.5622584  49.1587584   3.3802584  26.8582584  49.2367584
  -6.1527416  18.0032584  47.7197584  -6.5207416  17.5362584  46.9687584
  -5.2487416  17.6952584  47.7747584  -4.4637416  34.1812584  46.6627584
  -3.9407416  33.4342584  46.3707584  -5.2097416  34.2002584  46.0637584
 -18.0137416  34.2472584  45.8677584 -18.4537416  35.0712584  46.0797584
 -18.7267416  33.6292584  45.7077584 -22.7757416  14.7692584  47.9087584
 -23.3537416  14.3282584  47.2847584 -22.0977416  15.1712584  47.3647584
 -10.7657416  12.2232584  40.9287584 -11.3577416  12.9462584  40.7217584
 -10.0907416  12.2642584  40.2507584   0.1652584  38.2052584  47.2997584
  -0.4887416  38.5422584  47.9117584   0.8372584  37.8132584  47.8587584
   7.2252584  17.7902584  47.9667584   6.2892584  17.6882584  48.1387584
   7.3652584  17.3452584  47.1317584 -20.1697416  17.3612584  49.2537584
 -19.7467416  17.5632584  50.0887584 -21.0357416  17.7622584  49.3207584
 -16.7407416  11.9392584  43.9547584 -17.0937416  12.8032584  44.1687584
 -17.4307416  11.5202584  43.4397584  -2.6437416  11.6832584  47.7937584
  -2.0177416  11.1172584  48.2467584  -3.3777416  11.7642584  48.4017584
 -16.9197416  18.7152584  45.9837584 -17.1707416  19.2712584  46.7217584
 -16.9337416  19.3002584  45.2267584  -6.8547416  24.3792584  41.2947584
  -7.7367416  24.0412584  41.4477584  -6.4157416  23.6872584  40.7997584
  -0.6417416  16.2022584  49.2547584   0.2722584  15.9182584  49.2227584
  -0.6787416  16.9582584  48.6687584   1.5802584  19.3322584  47.8577584
   1.8882584  19.7792584  48.6457584   2.2922584  19.4402584  47.2267584
   1.6242584  16.6672584  40.7857584   2.1932584  17.2672584  40.3037584
   2.1432584  16.4032584  41.5457584   0.2342584  34.1332584  48.3677584
  -0.5897416  34.5492584  48.1147584   0.2522584  33.3142584  47.8727584
 -21.6027416  26.7662584  48.7787584 -21.0197416  26.8942584  49.5277584
 -22.3927416  26.3762584  49.1527584   1.9812584  10.5492584  46.5187584
   1.3772584   9.8062584  46.5317584   2.8512584  10.1502584  46.5237584
   4.9592584  22.0332584  44.4667584   4.9322584  22.2762584  45.3917584
   5.0942584  22.8612584  44.0047584   1.6982584  12.2202584  48.9567584
   1.8592584  11.5602584  48.2827584   2.5622584  12.3972584  49.3307584
   5.0852584  24.3942584  42.4337584   4.2562584  23.9292584  42.3147584
   5.4632584  24.4382584  41.5557584 -18.4007416  19.3042584  41.6677584
 -19.1067416  19.8772584  41.9667584 -17.6827416  19.4682584  42.2797584
   4.4312584  13.4042584  48.6807584   4.5842584  14.3252584  48.8937584
   4.7542584  13.3092584  47.7847584  -6.0207416  26.8552584  42.3007584
  -6.0847416  25.9642584  41.9567584  -5.3937416  27.2902584  41.7237584
 -14.2927416  27.3592584  45.3137584 -14.3617416  26.4292584  45.5297584
 -14.9327416  27.4912584  44.6147584 -21.8917416  20.6322584  44.1327584
 -22.0397416  21.2942584  43.4577584 -22.5617416  19.9682584  43.9687584
   0.2142584  16.8682584  44.1247584   0.4082584  17.8042584  44.0697584
   0.6312584  16.5842584  44.9387584  -4.4097416  10.2012584  45.1267584
  -4.6347416   9.4662584  45.6967584  -3.4537416  10.2412584  45.1537584
 -21.8277416  20.2182584  47.0857584 -22.0007416  20.0032584  46.1687584
 -21.9687416  19.3962584  47.5557584   0.2812584  14.4792584  42.9057584
   0.3112584  15.3972584  43.1747584  -0.2297416  14.4822584  42.0967584
  -3.3767416  37.4522584  41.4887584  -2.4197416  37.4442584  41.4827584
  -3.6167416  36.9322584  42.2557584 -14.8837416   9.3632584  47.6807584
 -14.4207416   9.8382584  48.3707584 -15.1947416  10.0462584  47.0867584
   3.2562584  14.6362584  43.4927584   3.9692584  14.9102584  42.9157584
   2.6692584  14.1352584  42.9267584   2.6052584  29.2492584  42.1517584
   2.6932584  29.4342584  41.2167584   3.4172584  28.7992584  42.3847584
   6.5982584  18.2112584  41.8357584   6.9762584  18.0512584  40.9717584
   6.0812584  17.4262584  42.0207584  -1.0427416  21.7952584  43.0037584
  -1.0327416  22.1412584  42.1117584  -1.8507416  21.2842584  43.0537584
   5.2242584  34.2042584  40.8207584   4.8452584  34.8182584  40.1907584
   5.9842584  34.6652584  41.1757584   5.9532584  36.6182584  43.6677584
   6.0692584  35.7192584  43.9757584   6.6712584  36.7562584  43.0507584
  -0.3737416  32.9052584  41.4387584  -1.1497416  32.8332584  41.9947584
  -0.3007416  32.0492584  41.0167584  -3.2497416  27.6932584  45.4117584
  -2.9787416  26.9352584  44.8947584  -3.2347416  28.4232584  44.7927584
   4.1332584  19.0052584  46.1677584   4.4902584  19.8702584  46.3657584
   4.7362584  18.6392584  45.5197584 -21.0927416  13.1822584  44.8467584
 -21.4137416  12.7652584  44.0467584 -21.7207416  12.9232584  45.5207584
   3.9052584  37.3282584  41.8437584   4.7252584  36.9772584  42.1907584
   3.5252584  37.8172584  42.5737584   1.3692584  26.9432584  42.3857584
   1.7272584  27.8082584  42.1847584   2.0212584  26.5412584  42.9607584
   5.0822584  11.3732584  41.4087584   4.3322584  10.8002584  41.5697584
   4.7642584  12.2502584  41.6197584   1.1942584  13.1412584  45.6907584
   1.0782584  12.9572584  44.7587584   1.4412584  12.2992584  46.0727584
 -17.5287416  19.9902584  48.1677584 -17.9617416  19.3572584  48.7417584
 -17.2317416  20.6832584  48.7567584   4.6672584  16.7302584  47.9967584
   4.2722584  17.4902584  47.5687584   4.6462584  16.0432584  47.3307584
 -18.1677416  16.6402584  40.9807584 -18.2567416  17.5762584  41.1597584
 -17.2267416  16.4742584  41.0357584 -19.0207416  11.5732584  46.1607584
 -18.0667416  11.6502584  46.1937584 -19.3037416  12.3182584  45.6307584
  -4.2907416  34.1352584  41.3367584  -4.1937416  35.0372584  41.6427584
  -3.6097416  34.0342584  40.6707584  -0.2597416  24.0112584  44.9077584
  -0.9177416  24.5222584  44.4357584  -0.3167416  23.1352584  44.5267584
  -0.8357416  38.1652584  44.9097584  -1.3147416  38.9872584  45.0057584
  -0.5137416  37.9702584  45.7897584  -6.5697416  11.0272584  47.6557584
  -6.3087416  10.1512584  47.3727584  -5.7497416  11.4542584  47.9017584
  -2.4777416  32.5422584  43.4437584  -3.2017416  33.0312584  43.0547584
  -2.5567416  32.7042584  44.3837584   4.3422584  29.8492584  48.7457584
   4.2102584  30.4332584  49.4927584   3.5592584  29.2992584  48.7287584
  -1.6927416  10.5452584  45.3587584  -1.6957416  11.0942584  46.1437584
  -1.2457416  11.0742584  44.6977584 -20.7267416  36.7682584  44.1277584
 -21.1587416  37.2092584  43.3967584 -20.3397416  37.4782584  44.6407584
  -5.3477416  28.0492584  47.5527584  -6.2357416  27.7042584  47.6467584
  -5.0857416  27.7982584  46.6667584  -2.8747416  31.9812584  46.0717584
  -3.3477416  31.1492584  46.0887584  -1.9607416  31.7402584  46.2227584
  -1.2807416  35.4582584  44.5537584  -0.9737416  35.1372584  43.7057584
  -1.0057416  36.3752584  44.5767584  -0.2407416  31.6172584  46.8687584
  -0.2927416  30.8332584  47.4157584   0.6772584  31.6642584  46.6017584
   1.3052584  30.2602584  44.3547584   1.9502584  30.8832584  44.6887584
   1.6302584  30.0192584  43.4877584   2.5162584  24.9542584  44.3497584
   2.6232584  24.2982584  43.6607584   1.6822584  24.7322584  44.7647584
  -3.0937416  29.9742584  48.2107584  -3.6887416  29.3062584  47.8697584
  -2.2957416  29.4942584  48.4297584   4.6642584  34.2702584  47.1267584
   4.9512584  33.3672584  47.2567584   4.5892584  34.3642584  46.1767584
   2.7092584  10.5752584  42.8937584   1.8902584  11.0682584  42.8487584
   2.4722584   9.7532584  43.3227584   5.0312584  24.9122584  45.5807584
   4.3582584  24.8792584  44.9007584   5.4202584  25.7832584  45.4917584
   1.8212584  38.1472584  43.8847584   0.8742584  38.0342584  43.9607584
   2.1752584  37.7382584  44.6747584   1.3482584  36.9032584  49.2907584
   2.1802584  36.4302584  49.3057584   0.7172584  36.2902584  49.6677584
   4.8232584  36.7772584  48.2057584   4.7602584  35.8252584  48.1247584
   4.7482584  36.9422584  49.1457584   5.8362584  31.8512584  42.7517584
   6.7402584  32.1562584  42.8197584   5.4232584  32.4582584  42.1377584
  -7.3457416  31.8962584  43.6557584  -6.8627416  31.7142584  42.8497584
  -7.4407416  31.0412584  44.0757584   2.3602584  33.5932584  42.4307584
   1.4492584  33.3022584  42.4467584   2.5812584  33.6392584  41.5007584
  -1.6527416  35.6002584  47.1677584  -1.3877416  35.3732584  46.2767584
  -1.2707416  36.4642584  47.3197584   5.8852584  27.6352584  44.4817584
   6.7532584  27.2572584  44.3367584   5.3552584  27.3022584  43.7577584
   4.5132584  27.3242584  42.1617584   5.0062584  27.6092584  41.3917584
   4.5402584  26.3682584  42.1237584 -22.6357416  34.3062584  44.2617584
 -22.2037416  33.7642584  43.6007584 -21.9627416  34.9272584  44.5397584
  -0.8997416  28.6992584  48.9057584  -1.0147416  27.7552584  49.0087584
  -0.3947416  28.7932584  48.0987584   4.5502584   9.6142584  46.8867584
   4.8242584  10.0972584  46.1067584   5.2072584   8.9252584  46.9857584
   6.6982584  18.0432584  44.5587584   6.4302584  17.8752584  43.6557584
   7.5322584  17.5832584  44.6517584 -22.6777416   8.7132584  46.7637584
 -22.6727416   8.6412584  45.8087584 -22.1327416   7.9852584  47.0617584
  -5.0037416   9.9322584  42.6347584  -4.9887416   9.7422584  43.5727584
  -4.8107416   9.0922584  42.2167584  -1.5217416  29.8752584  43.8227584
  -0.6157416  30.0362584  44.0857584  -1.8777416  30.7452584  43.6457584
 -22.2557416  31.4672584  49.0057584 -22.6207416  31.8722584  48.2197584
 -22.9497416  31.5452584  49.6607584   3.2722584  37.0902584  45.9467584
   3.7112584  37.3802584  46.7467584   3.7242584  36.2812584  45.7057584
  -0.8077416  35.9812584  41.6377584   0.1172584  36.0462584  41.4007584
  -1.0787416  35.1232584  41.3107584  -5.1937416  29.1792584  43.8437584
  -5.3917416  28.3282584  43.4517584  -5.0337416  29.7552584  43.0967584
 -19.0107416  11.0742584  42.1557584 -19.6477416  11.5322584  41.6067584
 -19.5377416  10.4882584  42.6977584   3.3512584  34.8382584  44.5287584
   2.8602584  35.6472584  44.6717584   3.0032584  34.4892584  43.7087584
 -20.1027416  29.5952584  41.1547584 -20.9437416  30.0532584  41.1637584
 -19.9167416  29.4552584  40.2257584   0.7862584  28.8802584  46.7227584
   1.6482584  28.4812584  46.8417584   0.8172584  29.2642584  45.8467584
  -0.4907416   9.0372584  40.6397584   0.0422584   8.7602584  41.3847584
   0.1452584   9.2512584  39.9567584 -21.9377416  14.6512584  41.5247584
 -21.6087416  15.1052584  40.7487584 -21.1937416  14.6322584  42.1257584
  -1.5187416  43.6972584  10.5507584  -2.2657416  43.3882584  11.0637584
  -1.8867416  44.3602584   9.9667584  -1.6817416  39.5832584   2.3547584
  -1.8417416  38.7342584   1.9427584  -1.1717416  40.0722584   1.7087584
 -16.9277416  45.4032584 -10.6792416 -17.3927416  44.6062584 -10.9322416
 -16.9037416  45.9302584 -11.4782416 -13.7427416  47.1162584  -1.5542416
 -14.3487416  46.6832584  -0.9522416 -13.4127416  46.4102584  -2.1102416
 -20.2737416  45.5972584   9.4667584 -19.5327416  46.0092584   9.9127584
 -19.9437416  45.3942584   8.5917584   5.2302584  43.9972584 -13.8312416
   4.2902584  44.1172584 -13.9672416   5.4092584  43.1132584 -14.1502416
  -4.3747416  43.2912584   5.6657584  -4.6917416  42.9482584   6.5007584
  -4.4347416  42.5502584   5.0627584 -21.2177416  46.3022584 -14.2422416
 -20.8937416  45.5142584 -14.6772416 -20.4317416  46.7282584 -13.8992416
 -18.4287416  40.1292584  -2.7422416 -19.3597416  40.2662584  -2.9162416
 -18.0387416  40.0052584  -3.6072416 -11.7877416  40.6152584  -1.2342416
 -12.0497416  41.5362584  -1.2412416 -11.1147416  40.5622584  -0.5562416
  -7.6517416  39.1142584 -10.5082416  -8.0417416  39.8622584 -10.9602416
  -7.7167416  38.3942584 -11.1352416 -14.4527416  44.8182584 -15.8782416
 -13.7887416  45.3402584 -16.3282416 -14.8187416  45.4112584 -15.2212416
 -13.7207416  41.2412584  -7.0792416 -13.5407416  41.6972584  -7.9012416
 -13.0337416  41.5402584  -6.4822416  -0.3517416  42.0392584 -16.7162416
  -1.1247416  42.0092584 -17.2802416  -0.0087416  42.9262584 -16.8272416
 -15.5987416  46.6372584  10.4717584 -15.4467416  47.1762584  11.2477584
 -14.7417416  46.5752584  10.0507584 -18.1197416  42.0452584  -7.0332416
 -18.9727416  42.3842584  -7.3072416 -17.5757416  42.8252584  -6.9262416
  -7.2357416  42.9362584   3.8277584  -6.6837416  43.5772584   3.3797584
  -7.5397416  42.3532584   3.1327584 -10.8647416  43.3652584  -0.9492416
  -9.9957416  43.7512584  -1.0562416 -11.0407416  43.4262584  -0.0102416
 -13.4157416  44.4322584  -5.8202416 -14.3387416  44.2552584  -5.6392416
 -13.2617416  44.0442584  -6.6812416 -10.0797416  43.1762584  -6.3452416
  -9.2507416  42.7102584  -6.4572416 -10.4367416  42.8352584  -5.5242416
 -11.5287416  47.0862584 -10.0302416 -11.4657416  46.3772584  -9.3892416
 -12.1337416  47.7132584  -9.6362416 -16.7997416  39.3142584 -14.9172416
 -15.9507416  38.9052584 -15.0862416 -16.6457416  40.2492584 -15.0492416
 -10.6157416  41.4612584 -12.7312416 -10.2237416  41.9412584 -12.0012416
  -9.9807416  40.7742584 -12.9362416 -19.0137416  44.3632584  -0.8342416
 -18.2707416  43.8282584  -1.1122416 -19.7647416  43.9882584  -1.2952416
 -15.5417416  43.9212584  -8.6102416 -16.1567416  44.4992584  -9.0622416
 -15.1657416  43.3802584  -9.3042416 -18.3167416  42.7492584 -10.7692416
 -18.9877416  42.1112584 -10.5292416 -18.0547416  42.5012584 -11.6552416
 -10.1907416  41.1762584 -16.7342416 -10.5587416  41.5462584 -17.5362416
  -9.5317416  41.8132584 -16.4562416  -7.1677416  45.0462584 -10.3932416
  -7.1867416  45.0462584  -9.4362416  -6.2657416  45.2802584 -10.6142416
 -21.2307416  40.2712584  -7.0012416 -21.1367416  39.8322584  -7.8462416
 -21.0257416  41.1882584  -7.1822416 -12.6637416  46.9782584 -16.4342416
 -12.0067416  47.0392584 -17.1272416 -12.2127416  47.2872584 -15.6482416
 -12.8337416  40.0552584 -10.2142416 -11.9207416  40.2182584 -10.4512416
 -12.7907416  39.6892584  -9.3312416 -18.3367416  45.4252584   1.7147584
 -18.4307416  45.1512584   0.8017584 -18.3467416  46.3812584   1.6807584
  -5.4727416  39.7492584  -2.0082416  -5.6607416  40.5992584  -1.6102416
  -6.2147416  39.1982584  -1.7602416 -14.3047416  42.5722584 -10.7682416
 -13.9437416  42.8882584 -11.5962416 -13.8257416  41.7622584 -10.5912416
 -18.6347416  46.4742584 -12.8222416 -19.2067416  46.7652584 -12.1122416
 -18.4837416  47.2602584 -13.3472416 -13.0347416  41.3182584 -13.7392416
 -12.1857416  41.1692584 -13.3212416 -13.0067416  40.7892584 -14.5362416
  -9.8147416  44.5132584   1.5247584  -9.5397416  45.4272584   1.4537584
  -9.3517416  44.1832584   2.2947584  -7.7997416  45.5512584   8.6677584
  -7.5747416  45.4762584   9.5947584  -8.6567416  45.1312584   8.5937584
   6.2642584  40.8022584  -5.8002416   6.3832584  41.1572584  -4.9192416
   7.1532584  40.6612584  -6.1252416 -20.3367416  40.7032584  -9.8942416
 -20.8857416  41.4412584 -10.1612416 -20.9247416  39.9482584  -9.9132416
 -14.7867416  39.4852584  -5.3172416 -14.6197416  40.2382584  -5.8842416
 -14.2217416  39.6282584  -4.5562416  -3.8157416  46.7812584 -13.4112416
  -2.8977416  46.8122584 -13.1402416  -3.9617416  45.8692584 -13.6602416
  -9.3627416  38.9982584 -14.2552416  -8.5457416  38.9772584 -13.7582416
  -9.0887416  38.9442584 -15.1712416  -8.0747416  43.4642584 -12.6442416
  -7.5187416  42.6882584 -12.7132416  -7.5387416  44.1032584 -12.1742416
 -18.3747416  38.4042584 -10.2282416 -17.8527416  38.7632584  -9.5112416
 -19.0987416  39.0222584 -10.3312416   5.9952584  45.1862584  -4.2632416
   5.7882584  44.7742584  -5.1012416   5.1712584  45.5852584  -3.9822416
 -20.6127416  40.8672584  -4.3602416 -20.8207416  40.4492584  -5.1962416
 -20.0477416  41.6042584  -4.5952416  -2.4527416  39.6262584  -4.9862416
  -1.5617416  39.4992584  -5.3122416  -2.4787416  40.5432584  -4.7112416
 -16.8457416  39.7302584  -8.5412416 -16.0977416  40.3252584  -8.4972416
 -17.6047416  40.2842584  -8.3572416  -4.8427416  43.2122584 -19.0462416
  -5.7547416  43.4802584 -18.9302416  -4.6087416  42.7932584 -18.2172416
 -16.4247416  42.3122584 -13.1022416 -15.9827416  42.5952584 -12.3022416
 -16.0297416  42.8422584 -13.7952416 -12.2737416  43.2712584  -8.2952416
 -12.3597416  43.9422584  -8.9732416 -11.4267416  43.4492584  -7.8872416
  -4.9497416  44.2312584 -13.0602416  -4.0327416  44.0462584 -13.2622416
  -5.4387416  43.8412584 -13.7842416   2.0142584  45.8642584 -10.7702416
   2.1242584  45.1652584 -11.4152416   2.6922584  46.5022584 -10.9902416
  -6.3997416  42.0632584  -0.3322416  -5.6967416  42.7132584  -0.3352416
  -6.6097416  41.9412584   0.5937584 -11.1617416  46.5612584   4.2267584
 -10.8867416  45.9282584   4.8907584 -10.8757416  47.4072584   4.5707584
  -9.3187416  46.7942584  -1.5982416 -10.2347416  46.9072584  -1.3422416
  -9.0887416  47.6142584  -2.0352416 -17.4307416  44.2852584 -14.8402416
 -16.8687416  45.0272584 -15.0632416 -17.6797416  44.4382584 -13.9282416
  -5.7477416  42.7252584 -15.6862416  -5.4837416  41.8622584 -15.3672416
  -6.4737416  42.5472584 -16.2852416 -13.5067416  43.1832584  -2.7012416
 -14.3287416  43.2002584  -3.1912416 -13.7757416  43.1442584  -1.7832416
   6.0242584  45.7062584 -17.0922416   6.0632584  45.4122584 -16.1822416
   6.7332584  45.2312584 -17.5272416  -9.9747416  44.5302584   6.4757584
 -10.5847416  45.2342584   6.6937584 -10.5167416  43.8662584   6.0497584
  -4.9697416  44.2352584  -1.0282416  -4.0667416  44.0542584  -1.2912416
  -5.0207416  45.1902584  -0.9852416 -17.1427416  46.6092584  -1.1282416
 -16.5437416  46.3132584  -0.4422416 -17.6177416  45.8202584  -1.3882416
 -16.8957416  44.6982584   3.7957584 -16.9427416  43.7422584   3.7807584
 -17.5487416  44.9812584   3.1567584 -10.7267416  40.7222584   6.2747584
 -10.9117416  40.7762584   7.2117584 -11.1317416  41.5062584   5.9037584
 -17.1107416  44.9952584   8.5847584 -16.5337416  45.2182584   7.8547584
 -16.5767416  45.1412584   9.3657584 -12.6867416  40.1972584 -15.9682416
 -13.2367416  40.2682584 -16.7492416 -11.8327416  40.5282584 -16.2462416
 -15.6517416  45.5742584   6.1607584 -16.1327416  45.4602584   5.3417584
 -15.5327416  46.5202584   6.2397584   1.9612584  44.5042584  -2.2342416
   1.0222584  44.4642584  -2.4162416   2.3752584  44.1752584  -3.0322416
 -11.3837416  39.8482584   2.9837584 -11.0087416  39.7292584   3.8567584
 -10.6337416  40.0542584   2.4257584 -18.4327416  40.4692584   3.2117584
 -17.7617416  41.0212584   3.6147584 -19.0527416  41.0882584   2.8277584
 -21.0317416  39.0602584   9.5557584 -20.2317416  39.5062584   9.8337584
 -21.6987416  39.7472584   9.5477584 -11.9947416  42.9442584   5.3257584
 -12.8937416  43.0072584   5.6487584 -12.0847416  42.8982584   4.3737584
 -15.3957416  46.6812584   3.1587584 -15.8027416  45.8232584   3.2767584
 -15.9087416  47.0972584   2.4657584 -16.8477416  40.9202584  10.2717584
 -17.4037416  40.8482584  11.0467584 -17.3317416  40.4622584   9.5847584
   6.1272584  38.3392584   7.9877584   6.4972584  39.0832584   8.4627584
   6.6522584  38.2782584   7.1897584  -3.9797416  41.9652584   2.9697584
  -3.9477416  41.0512584   3.2537584  -3.4697416  41.9822584   2.1597584
  -8.1487416  40.0782584   4.9477584  -7.5077416  39.9852584   5.6527584
  -8.9157416  40.4642584   5.3707584 -15.5957416  46.4402584 -13.9942416
 -16.1647416  47.1922584 -13.8292416 -14.8377416  46.5832584 -13.4282416
   7.3092584  46.5992584  -7.9582416   7.3862584  45.6852584  -8.2332416
   6.4872584  46.8982584  -8.3462416 -15.8977416  43.0042584  -3.9092416
 -16.3797416  43.5562584  -4.5242416 -16.5247416  42.8192584  -3.2102416
  -7.5557416  46.7132584   5.9527584  -8.2697416  46.0802584   6.0237584
  -7.0847416  46.6382584   6.7827584  -7.3637416  38.5952584  -6.1512416
  -6.6987416  37.9452584  -5.9222416  -7.2187416  39.3142584  -5.5372416
 -17.6917416  42.4402584   7.4927584 -18.6197416  42.5752584   7.3017584
 -17.4577416  43.1642584   8.0727584  -1.2647416  40.7132584   4.9257584
  -1.6117416  40.5502584   4.0487584  -1.3637416  39.8782584   5.3827584
 -19.2497416  45.6252584   6.6637584 -18.4497416  45.1062584   6.7477584
 -19.3957416  45.6892584   5.7197584   5.6262584  39.7512584  -1.6082416
   5.5692584  38.8272584  -1.3642416   5.5722584  40.2222584  -0.7762416
  -6.9727416  41.7452584 -17.8872416  -6.4137416  40.9692584 -17.9252416
  -7.3177416  41.8362584 -18.7752416 -21.9317416  41.8522584   4.5797584
 -22.2507416  40.9752584   4.3687584 -21.1687416  41.9732584   4.0137584
 -12.2877416  45.6122584  -3.4532416 -12.2627416  44.7582584  -3.0212416
 -12.6657416  45.4342584  -4.3142416  -7.2487416  42.6232584   6.7347584
  -7.9437416  43.2812584   6.7457584  -7.0157416  42.5352584   5.8107584
 -13.4287416  46.5182584   8.8767584 -14.0047416  46.6112584   8.1177584
 -12.6197416  46.9602584   8.6197584 -14.8597416  45.5312584   0.3557584
 -14.8827416  44.5752584   0.3287584 -14.0197416  45.7402584   0.7657584
 -21.6847416  44.4882584  -9.7392416 -22.1577416  44.7552584 -10.5272416
 -20.8857416  45.0152584  -9.7482416 -20.6387416  43.1112584  -7.2902416
 -21.1147416  43.4522584  -8.0472416 -20.9627416  43.6252584  -6.5512416
  -8.9467416  45.1732584 -16.9102416  -9.7387416  45.6362584 -17.1862416
  -9.2557416  44.5282584 -16.2742416  -9.7157416  43.5602584 -14.7162416
  -9.1237416  43.5512584 -13.9642416 -10.4087416  42.9422584 -14.4832416
 -13.6397416  43.8722584 -13.6322416 -13.9557416  44.1052584 -14.5052416
 -13.3877416  42.9522584 -13.7052416  -9.9507416  40.4862584  -9.7722416
  -9.1727416  39.9902584  -9.5162416 -10.1677416  41.0082584  -9.0002416
  -2.7207416  41.4662584 -17.9622416  -2.3737416  40.7822584 -18.5352416
  -3.5817416  41.1422584 -17.6972416   5.3702584  40.8562584   0.7707584
   4.5682584  40.6432584   1.2487584   5.6222584  41.7202584   1.0957584
 -21.8147416  38.4292584   6.3567584 -21.0297416  38.5002584   5.8137584
 -21.5647416  38.8232584   7.1927584 -12.3737416  39.8782584  -3.6582416
 -12.2077416  39.9062584  -2.7152416 -12.0987416  40.7382584  -3.9752416
   3.5312584  46.9552584  -4.6732416   3.1252584  47.8222584  -4.6532416
   2.7932584  46.3452584  -4.6802416  -9.1627416  38.8772584 -17.5332416
  -9.9437416  38.6542584 -18.0392416  -9.1577416  39.8342584 -17.5072416
 -19.6327416  39.0172584 -14.8062416 -18.6777416  39.0842584 -14.8122416
 -19.9287416  39.8422584 -14.4222416  -9.8557416  39.7392584  -6.8452416
  -9.2327416  39.0392584  -6.6482416 -10.6997416  39.3982584  -6.5502416
 -15.6067416  40.6192584   0.4167584 -15.0547416  39.8532584   0.2597584
 -16.3577416  40.2782584   0.9037584   4.5462584  38.7442584  -6.5472416
   4.7032584  38.1072584  -5.8502416   5.1302584  39.4742584  -6.3412416
 -14.4487416  42.6122584 -17.5202416 -14.3577416  43.2552584 -16.8172416
 -15.2697416  42.1582584 -17.3262416 -19.3657416  44.6152584 -17.4752416
 -18.8037416  45.2822584 -17.8702416 -18.8307416  44.2332584 -16.7792416
 -22.6697416  41.9932584 -13.5432416 -22.8147416  41.0792584 -13.7852416
 -22.7337416  42.0012584 -12.5882416  -2.9027416  38.7252584   6.9347584
  -3.4997416  38.4872584   7.6437584  -2.5107416  39.5512584   7.2177584
 -14.1107416  43.3702584   6.8387584 -14.2407416  43.2692584   7.7817584
 -14.8397416  43.9212584   6.5527584 -17.7517416  39.4342584   8.2367584
 -17.5697416  40.2432584   7.7597584 -17.8827416  38.7772584   7.5527584
 -14.3467416  40.9882584   5.5487584 -14.7147416  40.2462584   6.0277584
 -14.3377416  41.7032584   6.1847584   3.9642584  42.0992584   3.3467584
   3.9662584  41.2712584   3.8267584   4.5482584  42.6682584   3.8467584
 -12.8877416  41.9882584   2.4437584 -13.6917416  41.8952584   2.9547584
 -12.2977416  41.3242584   2.7997584 -11.9617416  40.6252584   8.7487584
 -12.8417416  40.4262584   8.4287584 -12.0857416  40.8442584   9.6717584
  -6.9277416  40.5382584   2.3187584  -7.2917416  40.3902584   3.1917584
  -6.0237416  40.2302584   2.3807584  -8.2717416  41.7912584   9.3567584
  -8.6347416  40.9222584   9.1807584  -7.7527416  41.9952584   8.5787584
  -9.7417416  39.9882584   0.6197584  -8.8417416  40.0382584   0.9427584
  -9.8667416  39.0652584   0.3997584 -14.5537416  39.7012584   8.7627584
 -15.2107416  39.8422584   9.4447584 -14.6177416  38.7672584   8.5587584
  -4.3197416  46.4622584 -17.7732416  -3.6067416  46.8162584 -17.2422416
  -4.7557416  47.2342584 -18.1352416   2.2872584  41.4472584   6.0237584
   1.9532584  41.1282584   5.1857584   2.8302584  40.7312584   6.3537584
 -13.7207416  39.6102584 -18.2052416 -14.4047416  38.9402584 -18.2292416
 -14.1337416  40.3882584 -18.5782416 -17.3047416  38.6102584   1.5167584
 -17.6547416  39.2372584   2.1497584 -17.4427416  37.7552584   1.9257584
  -8.1357416  46.2302584 -14.0252416  -7.4437416  46.1092584 -14.6752416
  -8.4067416  45.3412584 -13.7962416 -10.5637416  44.7802584 -11.5032416
  -9.7427416  44.3532584 -11.7462416 -11.2297416  44.3362584 -12.0282416
 -12.0327416  44.6452584  10.5857584 -11.6857416  45.3232584  11.1647584
 -12.6527416  45.1062584  10.0197584  -3.4297416  45.9802584  -6.5882416
  -3.2427416  46.4132584  -7.4212416  -3.8267416  46.6622584  -6.0462416
   4.6722584  42.4282584  -8.7272416   4.5302584  42.7282584  -9.6242416
   4.9072584  41.5042584  -8.8162416   1.0352584  46.3452584  -8.2472416
   0.4582584  46.9192584  -8.7502416   1.6962584  46.0582584  -8.8772416
   1.3332584  39.7842584  -8.4382416   0.4172584  39.9032584  -8.1882416
   1.3032584  39.1762584  -9.1762416 -22.7457416  45.1622584  -1.7972416
 -22.0277416  45.7662584  -1.6082416 -23.0887416  45.4552584  -2.6412416
  -4.1837416  43.3242584  -6.8722416  -3.6137416  42.9172584  -7.5252416
  -3.8097416  44.1952584  -6.7362416   4.9542584  41.2192584 -15.4312416
   5.4092584  40.4522584 -15.7792416   4.2342584  41.3692584 -16.0432416
  -6.9367416  45.4512584 -18.7202416  -7.6037416  45.2862584 -18.0532416
  -6.3497416  46.0912584 -18.3192416   3.1332584  43.8702584  -4.6122416
   3.3522584  44.2732584  -5.4522416   2.9562584  42.9542584  -4.8242416
   2.6442584  45.4042584 -13.8812416   2.0792584  44.6412584 -14.0022416
   2.9572584  45.6132584 -14.7622416  -6.0987416  45.4402584 -15.4942416
  -5.6097416  45.9492584 -16.1412416  -6.0217416  44.5342584 -15.7942416
 -17.1907416  42.3502584  -1.4182416 -16.6767416  41.8492584  -0.7862416
 -17.6967416  41.6902584  -1.8932416   2.4902584  44.0512584   0.3587584
   3.3652584  43.7162584   0.1627584   2.1152584  44.2582584  -0.4972416
 -12.2987416  45.5692584   1.5337584 -11.4587416  45.2272584   1.2257584
 -12.1777416  45.6892584   2.4757584   6.7262584  39.1342584 -16.0042416
   7.3892584  39.1972584 -16.6912416   6.3362584  38.2682584 -16.1262416
 -22.2477416  41.8712584 -17.2742416 -21.9027416  42.3762584 -18.0102416
 -23.1867416  41.8042584 -17.4482416  -4.7897416  45.4412584   7.8387584
  -5.4807416  44.9952584   8.3277584  -4.7067416  44.9392584   7.0277584
   3.9362584  42.0482584  -1.5182416   3.6592584  42.5172584  -2.3052416
   3.2402584  41.4112584  -1.3602416  -2.9107416  46.2172584   9.8537584
  -3.3507416  45.9522584   9.0457584  -3.5327416  46.0032584  10.5477584
  -1.5397416  39.1902584 -10.7972416  -1.4067416  39.5342584  -9.9142416
  -2.2147416  38.5192584 -10.6932416   1.3772584  42.8642584   9.8947584
   1.1132584  43.4562584   9.1907584   0.6282584  42.8522584  10.4917584
   4.2142584  39.0492584   3.9757584   3.3052584  38.8072584   3.7967584
   4.6522584  38.2182584   4.1597584   0.5562584  43.4792584  -7.5652416
   0.9582584  44.3152584  -7.8032416   1.2972584  42.8992584  -7.3872416
   2.1692584  39.4632584   0.7327584   1.8662584  39.8312584  -0.0972416
   1.6692584  39.9322584   1.4007584   3.5152584  45.9272584   4.5617584
   3.4952584  45.1872584   5.1677584   4.2982584  46.4192584   4.8097584
 -22.7757416  44.7692584 -12.0912416 -23.3537416  44.3282584 -12.7152416
 -22.0977416  45.1712584 -12.6352416 -17.3957416  40.0732584  -5.2792416
 -16.4537416  39.9802584  -5.4262416 -17.6867416  40.6792584  -5.9602416
 -10.7657416  42.2232584 -19.0712416 -11.3577416  42.9462584 -19.2782416
 -10.0907416  42.2642584 -19.7492416   1.6532584  40.5212584  -1.8142416
   1.8912584  40.6182584  -2.7362416   1.1132584  39.7312584  -1.7872416
 -14.2567416  42.8332584   0.0477584 -13.6497416  42.5302584   0.7237584
 -14.9917416  42.2212584   0.0947584   4.8672584  45.6642584   9.1127584
   5.3862584  46.4382584   8.8927584   4.7072584  45.2342584   8.2727584
  -1.5727416  40.1642584  -8.3302416  -1.7497416  40.1822584  -7.3902416
  -1.7087416  41.0672584  -8.6172416  -0.6897416  44.6582584  -2.9192416
  -1.2307416  45.2522584  -2.3992416  -1.1257416  44.6182584  -3.7702416
 -20.1107416  42.5242584   2.4907584 -20.5007416  42.0212584   1.7757584
 -19.8067416  43.3322584   2.0757584 -10.6667416  45.8902584  -7.1582416
  -9.7267416  45.8652584  -7.3372416 -10.8397416  45.0842584  -6.6722416
 -20.8397416  46.6862584  -0.9532416 -19.9887416  47.0902584  -0.7852416
 -21.3977416  46.9962584  -0.2402416   4.6972584  44.3922584  -6.7042416
   4.8282584  43.5672584  -7.1722416   4.6262584  45.0512584  -7.3952416
 -16.7407416  41.9392584 -16.0452416 -17.0937416  42.8032584 -15.8312416
 -17.4307416  41.5202584 -16.5602416  -2.6437416  41.6832584 -12.2062416
  -2.0177416  41.1172584 -11.7532416  -3.3777416  41.7642584 -11.5982416
  -0.6417416  46.2022584 -10.7452416   0.2722584  45.9182584 -10.7772416
  -0.6787416  46.9582584 -11.3312416   4.3042584  46.3572584  -8.6212416
   3.8632584  47.0942584  -8.1982416   4.4792584  46.6622584  -9.5122416
   1.6242584  46.6672584 -19.2142416   2.1932584  47.2672584 -19.6962416
   2.1432584  46.4032584 -18.4542416  -2.3607416  44.1592584 -13.4292416
  -2.1167416  43.3732584 -12.9412416  -1.5257416  44.5342584 -13.7122416
  -7.7357416  41.5442584  -7.4072416  -6.8757416  41.1362584  -7.5102416
  -8.2297416  40.9302584  -6.8632416 -21.5517416  45.2452584  -5.2172416
 -22.4397416  45.1722584  -4.8702416 -21.2587416  46.1152584  -4.9472416
   1.9812584  40.5492584 -13.4812416   1.3772584  39.8062584 -13.4682416
   2.8512584  40.1502584 -13.4762416   1.6982584  42.2202584 -11.0432416
   1.8592584  41.5602584 -11.7172416   2.5622584  42.3972584 -10.6692416
  -1.3857416  44.3932584  -5.6542416  -2.0617416  44.8882584  -6.1172416
  -0.7677416  44.1342584  -6.3382416   4.4312584  43.4042584 -11.3192416
   4.5842584  44.3252584 -11.1062416   4.7542584  43.3092584 -12.2152416
   0.4522584  38.9032584  -5.1552416   0.8972584  38.1962584  -5.6222416
   1.1422584  39.5392584  -4.9682416  -6.5447416  44.0972584  -7.5752416
  -5.6507416  43.7872584  -7.4352416  -7.0797416  43.3042584  -7.5542416
   2.4542584  40.9562584  -4.2302416   3.3532584  40.6322584  -4.1662416
   2.3062584  41.0692584  -5.1692416   0.2142584  46.8682584 -15.8752416
   0.4082584  47.8042584 -15.9302416   0.6312584  46.5842584 -15.0612416
  -4.4097416  40.2012584 -14.8732416  -4.6347416  39.4662584 -14.3032416
  -3.4537416  40.2412584 -14.8462416  -2.8967416  46.8012584  -9.3142416
  -2.8967416  47.6852584  -9.6812416  -2.1927416  46.3492584  -9.7772416
  -4.2617416  44.6692584 -10.4342416  -4.1197416  44.7392584 -11.3782416
  -3.9477416  45.5012584 -10.0812416  -5.2237416  40.5512584  -7.6812416
  -5.2707416  40.3592584  -6.7442416  -5.3647416  39.7062584  -8.1062416
   0.2812584  44.4792584 -17.0942416   0.3112584  45.3972584 -16.8252416
  -0.2297416  44.4822584 -17.9032416   0.2862584  43.0152584   7.2367584
   0.9862584  42.5872584   6.7447584  -0.3507416  43.2752584   6.5717584
   7.1932584  41.7462584 -10.6452416   6.4812584  41.1212584 -10.5082416
   6.8172584  42.5942584 -10.4112416 -14.8837416  39.3632584 -12.3192416
 -14.4207416  39.8382584 -11.6292416 -15.1947416  40.0462584 -12.9132416
   3.2562584  44.6362584 -16.5072416   3.9692584  44.9102584 -17.0842416
   2.6692584  44.1352584 -17.0732416   5.5592584  43.9012584  -0.0792416
   5.9972584  44.4272584  -0.7482416   5.2532584  43.1242584  -0.5472416
  -9.1007416  39.2422584   9.4137584  -9.9977416  39.1092584   9.7187584
  -8.5617416  39.1262584  10.1967584  -1.8647416  42.8182584  -1.6252416
  -2.2247416  42.3402584  -2.3722416  -1.2827416  43.4702584  -2.0162416
   1.3062584  40.1692584   8.7347584   1.9742584  39.8642584   8.1207584
   1.5992584  41.0432584   8.9927584 -22.1237416  42.9152584   7.1997584
 -21.9847416  42.7692584   6.2647584 -21.9297416  43.8432584   7.3297584
  -1.6127416  43.4342584   5.0277584  -2.4567416  43.6982584   5.3927584
  -1.5507416  42.4982584   5.2177584   3.7372584  44.0132584   6.5587584
   3.0142584  43.4002584   6.4257584   4.5162584  43.5282584   6.2857584
 -20.1577416  45.5062584   3.9497584 -19.8907416  46.3182584   3.5177584
 -20.7027416  45.0582584   3.3017584   4.2022584  46.1882584   1.5297584
   4.3572584  46.0012584   2.4557584   3.3682584  45.7592584   1.3357584
  -0.6197416  45.7832584   3.8537584  -0.1737416  45.6642584   3.0157584
  -0.8217416  44.8942584   4.1467584 -21.0927416  43.1822584 -15.1532416
 -21.4137416  42.7652584 -15.9532416 -21.7207416  42.9232584 -14.4792416
   5.0822584  41.3732584 -18.5912416   4.3322584  40.8002584 -18.4302416
   4.7642584  42.2502584 -18.3802416  -5.2177416  44.3792584   2.4847584
  -4.8797416  43.4852584   2.5347584  -4.5667416  44.8542584   1.9677584
  -4.1737416  42.2272584   8.3187584  -3.3607416  41.7292584   8.2337584
  -4.2207416  42.4542584   9.2477584  -2.7387416  45.0362584   1.2967584
  -2.3957416  44.1742584   1.0617584  -1.9597416  45.5712584   1.4487584
   6.6072584  41.6002584  -3.3082416   6.4302584  40.8192584  -2.7832416
   6.1002584  42.2932584  -2.8842416  -4.9267416  46.0592584   4.7417584
  -5.0487416  45.1102584   4.7117584  -5.7907416  46.4052584   4.9677584
   7.0432584  41.0282584   9.3277584   6.5052584  41.3582584  10.0467584
   6.9132584  41.6602584   8.6207584   1.1942584  43.1412584 -14.3092416
   1.0782584  42.9572584 -15.2412416   1.4412584  42.2992584 -13.9272416
   5.8912584  43.4152584   4.5927584   6.4222584  44.0992584   5.0017584
   6.4642584  42.6492584   4.5677584 -20.2897416  42.2252584   9.6137584
 -20.4667416  43.1642584   9.6567584 -20.8017416  41.9172584   8.8657584
   0.2902584  45.5282584   1.3517584   0.7652584  46.2242584   0.8977584
   0.7762584  44.7302584   1.1417584 -22.6857416  45.6082584   5.6557584
 -21.8057416  45.7422584   5.3017584 -23.1287416  46.4462584   5.5207584
  -1.5237416  42.6472584  -9.1432416  -0.6357416  42.8652584  -8.8602416
  -1.8497416  43.4512584  -9.5492416 -16.7547416  44.4732584  -6.3902416
 -16.0447416  44.3602584  -7.0222416 -16.8267416  45.4202584  -6.2762416
   1.3072584  42.1502584   1.7427584   1.7812584  42.9102584   1.4037584
   1.7352584  41.9532584   2.5757584  -9.0647416  44.8872584  -3.7412416
  -8.5617416  45.2822584  -4.4532416  -9.3787416  45.6322584  -3.2282416
  -5.5907416  40.6762584  -5.1172416  -5.3497416  40.1182584  -4.3772416
  -5.8107416  41.5192584  -4.7202416 -16.6307416  42.0802584   4.4807584
 -15.7747416  41.8682584   4.8537584 -17.1797416  42.2792584   5.2387584
   4.6672584  46.7302584 -12.0032416   4.2722584  47.4902584 -12.4312416
   4.6462584  46.0432584 -12.6692416 -18.1677416  46.6402584 -19.0192416
 -18.2567416  47.5762584 -18.8402416 -17.2267416  46.4742584 -18.9642416
 -19.2277416  43.7282584  -4.6572416 -18.5197416  44.1812584  -5.1162416
 -19.9597416  44.3452584  -4.6762416  -8.4387416  47.0292584   1.1107584
  -8.3797416  47.9812584   1.1877584  -8.4087416  46.8622584   0.1687584
 -21.0967416  42.9932584  -2.0182416 -21.5387416  42.5472584  -2.7412416
 -21.7257416  43.6512584  -1.7222416 -19.0207416  41.5732584 -13.8392416
 -18.0667416  41.6502584 -13.8062416 -19.3037416  42.3182584 -14.3692416
  -3.2527416  38.4932584  -2.1432416  -2.9547416  38.7832584  -3.0052416
  -4.1267416  38.8712584  -2.0512416  -6.5697416  41.0272584 -12.3442416
  -6.3087416  40.1512584 -12.6272416  -5.7497416  41.4542584 -12.0982416
  -4.9517416  42.0832584 -10.5572416  -4.7847416  43.0132584 -10.4012416
  -5.1117416  41.7182584  -9.6872416  -1.1077416  38.4462584   0.0257584
  -0.4957416  38.2322584  -0.6792416  -1.8507416  38.8552584  -0.4182416
  -1.6927416  40.5452584 -14.6412416  -1.6957416  41.0942584 -13.8562416
  -1.2457416  41.0742584 -15.3022416   2.4222584  41.6812584  -6.9702416
   2.0492584  41.0742584  -7.6092416   3.2782584  41.9132584  -7.3302416
   2.7092584  40.5752584 -17.1062416   1.8902584  41.0682584 -17.1512416
   2.4722584  39.7532584 -16.6772416 -11.0117416  42.6152584  -3.9142416
 -11.7487416  42.8212584  -3.3382416 -10.3097416  43.1962584  -3.6222416
  -6.7597416  42.9982584  -3.6092416  -6.7257416  42.9442584  -2.6542416
  -7.3537416  43.7282584  -3.7862416   4.5502584  39.6142584 -13.1132416
   4.8242584  40.0972584 -13.8932416   5.2072584  38.9252584 -13.0142416
 -22.6777416  38.7132584 -13.2362416 -22.6727416  38.6412584 -14.1912416
 -22.1327416  37.9852584 -12.9382416  -5.0037416  39.9322584 -17.3652416
  -4.9887416  39.7422584 -16.4272416  -4.8107416  39.0922584 -17.7832416
 -14.9607416  43.0882584   9.4507584 -14.5857416  43.1732584  10.3267584
 -15.4437416  42.2622584   9.4747584   6.9322584  39.6842584   3.3467584
   7.1652584  39.0322584   2.6857584   5.9902584  39.5692584   3.4757584
   3.8212584  43.6032584  10.7757584   2.9972584  43.2062584  10.4937584
   3.8162584  44.4732584  10.3767584   3.3102584  39.1112584   7.1587584
   3.0802584  38.5222584   6.4407584   4.1032584  38.7312584   7.5367584
 -19.0107416  41.0742584 -17.8442416 -19.6477416  41.5322584 -18.3932416
 -19.5377416  40.4882584 -17.3022416  -2.0687416  42.3362584   0.8667584
  -1.9437416  42.3862584  -0.0802416  -1.1977416  42.4872584   1.2327584
  -5.9707416  39.6442584   7.7097584  -5.3307416  39.0292584   8.0697584
  -5.6837416  40.5012584   8.0247584   1.1512584  40.1012584   3.9817584
   0.2772584  40.3802584   4.2567584   1.1942584  39.1752584   4.2207584
   6.5512584  44.9002584   2.3617584   6.1622584  44.6052584   1.5387584
   6.2192584  44.2872584   3.0177584  -0.4907416  39.0372584 -19.3602416
   0.0422584  38.7602584 -18.6152416   0.1452584  39.2512584 -20.0432416
 -20.7427416  40.8762584   0.2597584 -20.7707416  41.5352584  -0.4342416
 -21.4147416  40.2402584   0.0147584 -21.9377416  44.6512584 -18.4752416
 -21.6087416  45.1052584 -19.2512416 -21.1937416  44.6322584 -17.8742416
  -1.5187416  43.6972584  40.5507584  -2.2657416  43.3882584  41.0637584
  -1.8867416  44.3602584  39.9667584  -1.6817416  39.5832584  32.3547584
  -1.8417416  38.7342584  31.9427584  -1.1717416  40.0722584  31.7087584
 -16.9277416  45.4032584  19.3207584 -17.3927416  44.6062584  19.0677584
 -16.9037416  45.9302584  18.5217584 -13.7427416  47.1162584  28.4457584
 -14.3487416  46.6832584  29.0477584 -13.4127416  46.4102584  27.8897584
 -20.2737416  45.5972584  39.4667584 -19.5327416  46.0092584  39.9127584
 -19.9437416  45.3942584  38.5917584   5.2302584  43.9972584  16.1687584
   4.2902584  44.1172584  16.0327584   5.4092584  43.1132584  15.8497584
  -4.3747416  43.2912584  35.6657584  -4.6917416  42.9482584  36.5007584
  -4.4347416  42.5502584  35.0627584 -21.2177416  46.3022584  15.7577584
 -20.8937416  45.5142584  15.3227584 -20.4317416  46.7282584  16.1007584
 -18.4287416  40.1292584  27.2577584 -19.3597416  40.2662584  27.0837584
 -18.0387416  40.0052584  26.3927584 -11.7877416  40.6152584  28.7657584
 -12.0497416  41.5362584  28.7587584 -11.1147416  40.5622584  29.4437584
  -7.6517416  39.1142584  19.4917584  -8.0417416  39.8622584  19.0397584
  -7.7167416  38.3942584  18.8647584 -14.4527416  44.8182584  14.1217584
 -13.7887416  45.3402584  13.6717584 -14.8187416  45.4112584  14.7787584
 -13.7207416  41.2412584  22.9207584 -13.5407416  41.6972584  22.0987584
 -13.0337416  41.5402584  23.5177584  -0.3517416  42.0392584  13.2837584
  -1.1247416  42.0092584  12.7197584  -0.0087416  42.9262584  13.1727584
 -15.5987416  46.6372584  40.4717584 -15.4467416  47.1762584  41.2477584
 -14.7417416  46.5752584  40.0507584 -18.1197416  42.0452584  22.9667584
 -18.9727416  42.3842584  22.6927584 -17.5757416  42.8252584  23.0737584
  -7.2357416  42.9362584  33.8277584  -6.6837416  43.5772584  33.3797584
  -7.5397416  42.3532584  33.1327584 -10.8647416  43.3652584  29.0507584
  -9.9957416  43.7512584  28.9437584 -11.0407416  43.4262584  29.9897584
 -13.4157416  44.4322584  24.1797584 -14.3387416  44.2552584  24.3607584
 -13.2617416  44.0442584  23.3187584 -10.0797416  43.1762584  23.6547584
  -9.2507416  42.7102584  23.5427584 -10.4367416  42.8352584  24.4757584
 -11.5287416  47.0862584  19.9697584 -11.4657416  46.3772584  20.6107584
 -12.1337416  47.7132584  20.3637584 -16.7997416  39.3142584  15.0827584
 -15.9507416  38.9052584  14.9137584 -16.6457416  40.2492584  14.9507584
 -10.6157416  41.4612584  17.2687584 -10.2237416  41.9412584  17.9987584
  -9.9807416  40.7742584  17.0637584 -19.0137416  44.3632584  29.1657584
 -18.2707416  43.8282584  28.8877584 -19.7647416  43.9882584  28.7047584
 -15.5417416  43.9212584  21.3897584 -16.1567416  44.4992584  20.9377584
 -15.1657416  43.3802584  20.6957584 -18.3167416  42.7492584  19.2307584
 -18.9877416  42.1112584  19.4707584 -18.0547416  42.5012584  18.3447584
 -10.1907416  41.1762584  13.2657584 -10.5587416  41.5462584  12.4637584
  -9.5317416  41.8132584  13.5437584  -7.1677416  45.0462584  19.6067584
  -7.1867416  45.0462584  20.5637584  -6.2657416  45.2802584  19.3857584
 -21.2307416  40.2712584  22.9987584 -21.1367416  39.8322584  22.1537584
 -21.0257416  41.1882584  22.8177584 -12.6637416  46.9782584  13.5657584
 -12.0067416  47.0392584  12.8727584 -12.2127416  47.2872584  14.3517584
 -12.8337416  40.0552584  19.7857584 -11.9207416  40.2182584  19.5487584
 -12.7907416  39.6892584  20.6687584 -18.3367416  45.4252584  31.7147584
 -18.4307416  45.1512584  30.8017584 -18.3467416  46.3812584  31.6807584
  -5.4727416  39.7492584  27.9917584  -5.6607416  40.5992584  28.3897584
  -6.2147416  39.1982584  28.2397584 -14.3047416  42.5722584  19.2317584
 -13.9437416  42.8882584  18.4037584 -13.8257416  41.7622584  19.4087584
 -18.6347416  46.4742584  17.1777584 -19.2067416  46.7652584  17.8877584
 -18.4837416  47.2602584  16.6527584 -13.0347416  41.3182584  16.2607584
 -12.1857416  41.1692584  16.6787584 -13.0067416  40.7892584  15.4637584
  -9.8147416  44.5132584  31.5247584  -9.5397416  45.4272584  31.4537584
  -9.3517416  44.1832584  32.2947584  -7.7997416  45.5512584  38.6677584
  -7.5747416  45.4762584  39.5947584  -8.6567416  45.1312584  38.5937584
   6.2642584  40.8022584  24.1997584   6.3832584  41.1572584  25.0807584
   7.1532584  40.6612584  23.8747584 -20.3367416  40.7032584  20.1057584
 -20.8857416  41.4412584  19.8387584 -20.9247416  39.9482584  20.0867584
 -14.7867416  39.4852584  24.6827584 -14.6197416  40.2382584  24.1157584
 -14.2217416  39.6282584  25.4437584  -3.8157416  46.7812584  16.5887584
  -2.8977416  46.8122584  16.8597584  -3.9617416  45.8692584  16.3397584
  -9.3627416  38.9982584  15.7447584  -8.5457416  38.9772584  16.2417584
  -9.0887416  38.9442584  14.8287584  -8.0747416  43.4642584  17.3557584
  -7.5187416  42.6882584  17.2867584  -7.5387416  44.1032584  17.8257584
 -18.3747416  38.4042584  19.7717584 -17.8527416  38.7632584  20.4887584
 -19.0987416  39.0222584  19.6687584   5.9952584  45.1862584  25.7367584
   5.7882584  44.7742584  24.8987584   5.1712584  45.5852584  26.0177584
 -20.6127416  40.8672584  25.6397584 -20.8207416  40.4492584  24.8037584
 -20.0477416  41.6042584  25.4047584  -2.4527416  39.6262584  25.0137584
  -1.5617416  39.4992584  24.6877584  -2.4787416  40.5432584  25.2887584
 -16.8457416  39.7302584  21.4587584 -16.0977416  40.3252584  21.5027584
 -17.6047416  40.2842584  21.6427584  -4.8427416  43.2122584  10.9537584
  -5.7547416  43.4802584  11.0697584  -4.6087416  42.7932584  11.7827584
 -16.4247416  42.3122584  16.8977584 -15.9827416  42.5952584  17.6977584
 -16.0297416  42.8422584  16.2047584 -12.2737416  43.2712584  21.7047584
 -12.3597416  43.9422584  21.0267584 -11.4267416  43.4492584  22.1127584
  -4.9497416  44.2312584  16.9397584  -4.0327416  44.0462584  16.7377584
  -5.4387416  43.8412584  16.2157584   2.0142584  45.8642584  19.2297584
   2.1242584  45.1652584  18.5847584   2.6922584  46.5022584  19.0097584
  -6.3997416  42.0632584  29.6677584  -5.6967416  42.7132584  29.6647584
  -6.6097416  41.9412584  30.5937584 -11.1617416  46.5612584  34.2267584
 -10.8867416  45.9282584  34.8907584 -10.8757416  47.4072584  34.5707584
  -9.3187416  46.7942584  28.4017584 -10.2347416  46.9072584  28.6577584
  -9.0887416  47.6142584  27.9647584 -17.4307416  44.2852584  15.1597584
 -16.8687416  45.0272584  14.9367584 -17.6797416  44.4382584  16.0717584
  -5.7477416  42.7252584  14.3137584  -5.4837416  41.8622584  14.6327584
  -6.4737416  42.5472584  13.7147584 -13.5067416  43.1832584  27.2987584
 -14.3287416  43.2002584  26.8087584 -13.7757416  43.1442584  28.2167584
   6.0242584  45.7062584  12.9077584   6.0632584  45.4122584  13.8177584
   6.7332584  45.2312584  12.4727584  -9.9747416  44.5302584  36.4757584
 -10.5847416  45.2342584  36.6937584 -10.5167416  43.8662584  36.0497584
  -4.9697416  44.2352584  28.9717584  -4.0667416  44.0542584  28.7087584
  -5.0207416  45.1902584  29.0147584 -17.1427416  46.6092584  28.8717584
 -16.5437416  46.3132584  29.5577584 -17.6177416  45.8202584  28.6117584
 -16.8957416  44.6982584  33.7957584 -16.9427416  43.7422584  33.7807584
 -17.5487416  44.9812584  33.1567584 -10.7267416  40.7222584  36.2747584
 -10.9117416  40.7762584  37.2117584 -11.1317416  41.5062584  35.9037584
  -2.6907416  42.2712584  25.6467584  -2.1987416  42.9352584  25.1637584
  -3.5427416  42.2402584  25.2117584 -17.1107416  44.9952584  38.5847584
 -16.5337416  45.2182584  37.8547584 -16.5767416  45.1412584  39.3657584
 -12.6867416  40.1972584  14.0317584 -13.2367416  40.2682584  13.2507584
 -11.8327416  40.5282584  13.7537584 -15.6517416  45.5742584  36.1607584
 -16.1327416  45.4602584  35.3417584 -15.5327416  46.5202584  36.2397584
   1.9612584  44.5042584  27.7657584   1.0222584  44.4642584  27.5837584
   2.3752584  44.1752584  26.9677584 -11.3837416  39.8482584  32.9837584
 -11.0087416  39.7292584  33.8567584 -10.6337416  40.0542584  32.4257584
 -18.4327416  40.4692584  33.2117584 -17.7617416  41.0212584  33.6147584
 -19.0527416  41.0882584  32.8277584 -21.0317416  39.0602584  39.5557584
 -20.2317416  39.5062584  39.8337584 -21.6987416  39.7472584  39.5477584
 -11.9947416  42.9442584  35.3257584 -12.8937416  43.0072584  35.6487584
 -12.0847416  42.8982584  34.3737584 -15.3957416  46.6812584  33.1587584
 -15.8027416  45.8232584  33.2767584 -15.9087416  47.0972584  32.4657584
 -16.8477416  40.9202584  40.2717584 -17.4037416  40.8482584  41.0467584
 -17.3317416  40.4622584  39.5847584   6.1272584  38.3392584  37.9877584
   6.4972584  39.0832584  38.4627584   6.6522584  38.2782584  37.1897584
  -3.9797416  41.9652584  32.9697584  -3.9477416  41.0512584  33.2537584
  -3.4697416  41.9822584  32.1597584  -8.1487416  40.0782584  34.9477584
  -7.5077416  39.9852584  35.6527584  -8.9157416  40.4642584  35.3707584
 -15.5957416  46.4402584  16.0057584 -16.1647416  47.1922584  16.1707584
 -14.8377416  46.5832584  16.5717584   7.3092584  46.5992584  22.0417584
   7.3862584  45.6852584  21.7667584   6.4872584  46.8982584  21.6537584
 -15.8977416  43.0042584  26.0907584 -16.3797416  43.5562584  25.4757584
 -16.5247416  42.8192584  26.7897584  -7.5557416  46.7132584  35.9527584
  -8.2697416  46.0802584  36.0237584  -7.0847416  46.6382584  36.7827584
  -7.3637416  38.5952584  23.8487584  -6.6987416  37.9452584  24.0777584
  -7.2187416  39.3142584  24.4627584  -1.2647416  40.7132584  34.9257584
  -1.6117416  40.5502584  34.0487584  -1.3637416  39.8782584  35.3827584
 -19.2497416  45.6252584  36.6637584 -18.4497416  45.1062584  36.7477584
 -19.3957416  45.6892584  35.7197584   5.6262584  39.7512584  28.3917584
   5.5692584  38.8272584  28.6357584   5.5722584  40.2222584  29.2237584
  -6.9727416  41.7452584  12.1127584  -6.4137416  40.9692584  12.0747584
  -7.3177416  41.8362584  11.2247584 -21.9317416  41.8522584  34.5797584
 -22.2507416  40.9752584  34.3687584 -21.1687416  41.9732584  34.0137584
 -12.2877416  45.6122584  26.5467584 -12.2627416  44.7582584  26.9787584
 -12.6657416  45.4342584  25.6857584  -7.2487416  42.6232584  36.7347584
  -7.9437416  43.2812584  36.7457584  -7.0157416  42.5352584  35.8107584
 -13.4287416  46.5182584  38.8767584 -14.0047416  46.6112584  38.1177584
 -12.6197416  46.9602584  38.6197584 -14.8597416  45.5312584  30.3557584
 -14.8827416  44.5752584  30.3287584 -14.0197416  45.7402584  30.7657584
 -21.6847416  44.4882584  20.2607584 -22.1577416  44.7552584  19.4727584
 -20.8857416  45.0152584  20.2517584 -20.6387416  43.1112584  22.7097584
 -21.1147416  43.4522584  21.9527584 -20.9627416  43.6252584  23.4487584
  -8.9467416  45.1732584  13.0897584  -9.7387416  45.6362584  12.8137584
  -9.2557416  44.5282584  13.7257584  -9.7157416  43.5602584  15.2837584
  -9.1237416  43.5512584  16.0357584 -10.4087416  42.9422584  15.5167584
 -13.6397416  43.8722584  16.3677584 -13.9557416  44.1052584  15.4947584
 -13.3877416  42.9522584  16.2947584  -9.9507416  40.4862584  20.2277584
  -9.1727416  39.9902584  20.4837584 -10.1677416  41.0082584  20.9997584
  -2.7207416  41.4662584  12.0377584  -2.3737416  40.7822584  11.4647584
  -3.5817416  41.1422584  12.3027584   5.3702584  40.8562584  30.7707584
   4.5682584  40.6432584  31.2487584   5.6222584  41.7202584  31.0957584
 -21.8147416  38.4292584  36.3567584 -21.0297416  38.5002584  35.8137584
 -21.5647416  38.8232584  37.1927584 -12.3737416  39.8782584  26.3417584
 -12.2077416  39.9062584  27.2847584 -12.0987416  40.7382584  26.0247584
   3.5312584  46.9552584  25.3267584   3.1252584  47.8222584  25.3467584
   2.7932584  46.3452584  25.3197584  -9.1627416  38.8772584  12.4667584
  -9.9437416  38.6542584  11.9607584  -9.1577416  39.8342584  12.4927584
 -19.6327416  39.0172584  15.1937584 -18.6777416  39.0842584  15.1877584
 -19.9287416  39.8422584  15.5777584  -9.8557416  39.7392584  23.1547584
  -9.2327416  39.0392584  23.3517584 -10.6997416  39.3982584  23.4497584
 -15.6067416  40.6192584  30.4167584 -15.0547416  39.8532584  30.2597584
 -16.3577416  40.2782584  30.9037584   4.5462584  38.7442584  23.4527584
   4.7032584  38.1072584  24.1497584   5.1302584  39.4742584  23.6587584
 -14.4487416  42.6122584  12.4797584 -14.3577416  43.2552584  13.1827584
 -15.2697416  42.1582584  12.6737584 -19.3657416  44.6152584  12.5247584
 -18.8037416  45.2822584  12.1297584 -18.8307416  44.2332584  13.2207584
 -22.6697416  41.9932584  16.4567584 -22.8147416  41.0792584  16.2147584
 -22.7337416  42.0012584  17.4117584  -2.9027416  38.7252584  36.9347584
  -3.4997416  38.4872584  37.6437584  -2.5107416  39.5512584  37.2177584
 -14.1107416  43.3702584  36.8387584 -14.2407416  43.2692584  37.7817584
 -14.8397416  43.9212584  36.5527584 -17.7517416  39.4342584  38.2367584
 -17.5697416  40.2432584  37.7597584 -17.8827416  38.7772584  37.5527584
 -14.3467416  40.9882584  35.5487584 -14.7147416  40.2462584  36.0277584
 -14.3377416  41.7032584  36.1847584   3.9642584  42.0992584  33.3467584
   3.9662584  41.2712584  33.8267584   4.5482584  42.6682584  33.8467584
 -12.8877416  41.9882584  32.4437584 -13.6917416  41.8952584  32.9547584
 -12.2977416  41.3242584  32.7997584 -11.9617416  40.6252584  38.7487584
 -12.8417416  40.4262584  38.4287584 -12.0857416  40.8442584  39.6717584
  -6.9277416  40.5382584  32.3187584  -7.2917416  40.3902584  33.1917584
  -6.0237416  40.2302584  32.3807584  -8.2717416  41.7912584  39.3567584
  -8.6347416  40.9222584  39.1807584  -7.7527416  41.9952584  38.5787584
  -9.7417416  39.9882584  30.6197584  -8.8417416  40.0382584  30.9427584
  -9.8667416  39.0652584  30.3997584 -14.5537416  39.7012584  38.7627584
 -15.2107416  39.8422584  39.4447584 -14.6177416  38.7672584  38.5587584
  -4.3197416  46.4622584  12.2267584  -3.6067416  46.8162584  12.7577584
  -4.7557416  47.2342584  11.8647584   2.2872584  41.4472584  36.0237584
   1.9532584  41.1282584  35.1857584   2.8302584  40.7312584  36.3537584
 -13.7207416  39.6102584  11.7947584 -14.4047416  38.9402584  11.7707584
 -14.1337416  40.3882584  11.4217584 -17.3047416  38.6102584  31.5167584
 -17.6547416  39.2372584  32.1497584 -17.4427416  37.7552584  31.9257584
  -8.1357416  46.2302584  15.9747584  -7.4437416  46.1092584  15.3247584
  -8.4067416  45.3412584  16.2037584 -10.5637416  44.7802584  18.4967584
  -9.7427416  44.3532584  18.2537584 -11.2297416  44.3362584  17.9717584
 -12.0327416  44.6452584  40.5857584 -11.6857416  45.3232584  41.1647584
 -12.6527416  45.1062584  40.0197584  -3.4297416  45.9802584  23.4117584
  -3.2427416  46.4132584  22.5787584  -3.8267416  46.6622584  23.9537584
   4.6722584  42.4282584  21.2727584   4.5302584  42.7282584  20.3757584
   4.9072584  41.5042584  21.1837584   1.0352584  46.3452584  21.7527584
   0.4582584  46.9192584  21.2497584   1.6962584  46.0582584  21.1227584
   1.3332584  39.7842584  21.5617584   0.4172584  39.9032584  21.8117584
   1.3032584  39.1762584  20.8237584 -22.7457416  45.1622584  28.2027584
 -22.0277416  45.7662584  28.3917584 -23.0887416  45.4552584  27.3587584
  -4.1837416  43.3242584  23.1277584  -3.6137416  42.9172584  22.4747584
  -3.8097416  44.1952584  23.2637584  -6.9367416  45.4512584  11.2797584
  -7.6037416  45.2862584  11.9467584  -6.3497416  46.0912584  11.6807584
   3.1332584  43.8702584  25.3877584   3.3522584  44.2732584  24.5477584
   2.9562584  42.9542584  25.1757584   2.6442584  45.4042584  16.1187584
   2.0792584  44.6412584  15.9977584   2.9572584  45.6132584  15.2377584
  -6.0987416  45.4402584  14.5057584  -5.6097416  45.9492584  13.8587584
  -6.0217416  44.5342584  14.2057584 -17.1907416  42.3502584  28.5817584
 -16.6767416  41.8492584  29.2137584 -17.6967416  41.6902584  28.1067584
   2.4902584  44.0512584  30.3587584   3.3652584  43.7162584  30.1627584
   2.1152584  44.2582584  29.5027584 -12.2987416  45.5692584  31.5337584
 -11.4587416  45.2272584  31.2257584 -12.1777416  45.6892584  32.4757584
   6.7262584  39.1342584  13.9957584   7.3892584  39.1972584  13.3087584
   6.3362584  38.2682584  13.8737584 -22.2477416  41.8712584  12.7257584
 -21.9027416  42.3762584  11.9897584 -23.1867416  41.8042584  12.5517584
  -4.7897416  45.4412584  37.8387584  -5.4807416  44.9952584  38.3277584
  -4.7067416  44.9392584  37.0277584   3.9362584  42.0482584  28.4817584
   3.6592584  42.5172584  27.6947584   3.2402584  41.4112584  28.6397584
  -2.9107416  46.2172584  39.8537584  -3.3507416  45.9522584  39.0457584
  -3.5327416  46.0032584  40.5477584  -1.5397416  39.1902584  19.2027584
  -1.4067416  39.5342584  20.0857584  -2.2147416  38.5192584  19.3067584
   4.2142584  39.0492584  33.9757584   3.3052584  38.8072584  33.7967584
   4.6522584  38.2182584  34.1597584   0.5562584  43.4792584  22.4347584
   0.9582584  44.3152584  22.1967584   1.2972584  42.8992584  22.6127584
   2.1692584  39.4632584  30.7327584   1.8662584  39.8312584  29.9027584
   1.6692584  39.9322584  31.4007584   3.5152584  45.9272584  34.5617584
   3.4952584  45.1872584  35.1677584   4.2982584  46.4192584  34.8097584
 -22.7757416  44.7692584  17.9087584 -23.3537416  44.3282584  17.2847584
 -22.0977416  45.1712584  17.3647584 -17.3957416  40.0732584  24.7207584
 -16.4537416  39.9802584  24.5737584 -17.6867416  40.6792584  24.0397584
 -10.7657416  42.2232584  10.9287584 -11.3577416  42.9462584  10.7217584
 -10.0907416  42.2642584  10.2507584   1.6532584  40.5212584  28.1857584
   1.8912584  40.6182584  27.2637584   1.1132584  39.7312584  28.2127584
 -14.2567416  42.8332584  30.0477584 -13.6497416  42.5302584  30.7237584
 -14.9917416  42.2212584  30.0947584   4.8672584  45.6642584  39.1127584
   5.3862584  46.4382584  38.8927584   4.7072584  45.2342584  38.2727584
  -1.5727416  40.1642584  21.6697584  -1.7497416  40.1822584  22.6097584
  -1.7087416  41.0672584  21.3827584  -0.6897416  44.6582584  27.0807584
  -1.2307416  45.2522584  27.6007584  -1.1257416  44.6182584  26.2297584
   5.1882584  39.9782584  19.9157584   4.8622584  39.2082584  20.3807584
   4.7792584  39.9282584  19.0517584 -20.1107416  42.5242584  32.4907584
 -20.5007416  42.0212584  31.7757584 -19.8067416  43.3322584  32.0757584
 -10.6667416  45.8902584  22.8417584  -9.7267416  45.8652584  22.6627584
 -10.8397416  45.0842584  23.3277584 -20.8397416  46.6862584  29.0467584
 -19.9887416  47.0902584  29.2147584 -21.3977416  46.9962584  29.7597584
   4.6972584  44.3922584  23.2957584   4.8282584  43.5672584  22.8277584
   4.6262584  45.0512584  22.6047584 -16.7407416  41.9392584  13.9547584
 -17.0937416  42.8032584  14.1687584 -17.4307416  41.5202584  13.4397584
  -2.6437416  41.6832584  17.7937584  -2.0177416  41.1172584  18.2467584
  -3.3777416  41.7642584  18.4017584  -0.6417416  46.2022584  19.2547584
   0.2722584  45.9182584  19.2227584  -0.6787416  46.9582584  18.6687584
   4.3042584  46.3572584  21.3787584   3.8632584  47.0942584  21.8017584
   4.4792584  46.6622584  20.4877584   1.6242584  46.6672584  10.7857584
   2.1932584  47.2672584  10.3037584   2.1432584  46.4032584  11.5457584
  -2.3607416  44.1592584  16.5707584  -2.1167416  43.3732584  17.0587584
  -1.5257416  44.5342584  16.2877584 -21.5517416  45.2452584  24.7827584
 -22.4397416  45.1722584  25.1297584 -21.2587416  46.1152584  25.0527584
   1.9812584  40.5492584  16.5187584   1.3772584  39.8062584  16.5317584
   2.8512584  40.1502584  16.5237584   1.6982584  42.2202584  18.9567584
   1.8592584  41.5602584  18.2827584   2.5622584  42.3972584  19.3307584
  -1.3857416  44.3932584  24.3457584  -2.0617416  44.8882584  23.8827584
  -0.7677416  44.1342584  23.6617584   4.4312584  43.4042584  18.6807584
   4.5842584  44.3252584  18.8937584   4.7542584  43.3092584  17.7847584
   0.4522584  38.9032584  24.8447584   0.8972584  38.1962584  24.3777584
   1.1422584  39.5392584  25.0317584  -6.5447416  44.0972584  22.4247584
  -5.6507416  43.7872584  22.5647584  -7.0797416  43.3042584  22.4457584
   2.4542584  40.9562584  25.7697584   3.3532584  40.6322584  25.8337584
   2.3062584  41.0692584  24.8307584   0.2142584  46.8682584  14.1247584
   0.4082584  47.8042584  14.0697584   0.6312584  46.5842584  14.9387584
  -4.4097416  40.2012584  15.1267584  -4.6347416  39.4662584  15.6967584
  -3.4537416  40.2412584  15.1537584  -2.8967416  46.8012584  20.6857584
  -2.8967416  47.6852584  20.3187584  -2.1927416  46.3492584  20.2227584
  -4.2617416  44.6692584  19.5657584  -4.1197416  44.7392584  18.6217584
  -3.9477416  45.5012584  19.9187584  -5.2237416  40.5512584  22.3187584
  -5.2707416  40.3592584  23.2557584  -5.3647416  39.7062584  21.8937584
   0.2812584  44.4792584  12.9057584   0.3112584  45.3972584  13.1747584
  -0.2297416  44.4822584  12.0967584   0.2862584  43.0152584  37.2367584
   0.9862584  42.5872584  36.7447584  -0.3507416  43.2752584  36.5717584
   7.1932584  41.7462584  19.3547584   6.4812584  41.1212584  19.4917584
   6.8172584  42.5942584  19.5887584 -14.8837416  39.3632584  17.6807584
 -14.4207416  39.8382584  18.3707584 -15.1947416  40.0462584  17.0867584
   3.2562584  44.6362584  13.4927584   3.9692584  44.9102584  12.9157584
   2.6692584  44.1352584  12.9267584   5.5592584  43.9012584  29.9207584
   5.9972584  44.4272584  29.2517584   5.2532584  43.1242584  29.4527584
  -9.1007416  39.2422584  39.4137584  -9.9977416  39.1092584  39.7187584
  -8.5617416  39.1262584  40.1967584  -1.8647416  42.8182584  28.3747584
  -2.2247416  42.3402584  27.6277584  -1.2827416  43.4702584  27.9837584
   1.3062584  40.1692584  38.7347584   1.9742584  39.8642584  38.1207584
   1.5992584  41.0432584  38.9927584 -22.1237416  42.9152584  37.1997584
 -21.9847416  42.7692584  36.2647584 -21.9297416  43.8432584  37.3297584
  -1.6127416  43.4342584  35.0277584  -2.4567416  43.6982584  35.3927584
  -1.5507416  42.4982584  35.2177584   3.7372584  44.0132584  36.5587584
   3.0142584  43.4002584  36.4257584   4.5162584  43.5282584  36.2857584
 -20.1577416  45.5062584  33.9497584 -19.8907416  46.3182584  33.5177584
 -20.7027416  45.0582584  33.3017584   4.2022584  46.1882584  31.5297584
   4.3572584  46.0012584  32.4557584   3.3682584  45.7592584  31.3357584
  -0.6197416  45.7832584  33.8537584  -0.1737416  45.6642584  33.0157584
  -0.8217416  44.8942584  34.1467584 -21.0927416  43.1822584  14.8467584
 -21.4137416  42.7652584  14.0467584 -21.7207416  42.9232584  15.5207584
   5.0822584  41.3732584  11.4087584   4.3322584  40.8002584  11.5697584
   4.7642584  42.2502584  11.6197584  -5.2177416  44.3792584  32.4847584
  -4.8797416  43.4852584  32.5347584  -4.5667416  44.8542584  31.9677584
  -4.1737416  42.2272584  38.3187584  -3.3607416  41.7292584  38.2337584
  -4.2207416  42.4542584  39.2477584  -2.7387416  45.0362584  31.2967584
  -2.3957416  44.1742584  31.0617584  -1.9597416  45.5712584  31.4487584
   6.6072584  41.6002584  26.6917584   6.4302584  40.8192584  27.2167584
   6.1002584  42.2932584  27.1157584  -4.9267416  46.0592584  34.7417584
  -5.0487416  45.1102584  34.7117584  -5.7907416  46.4052584  34.9677584
   7.0432584  41.0282584  39.3277584   6.5052584  41.3582584  40.0467584
   6.9132584  41.6602584  38.6207584   1.1942584  43.1412584  15.6907584
   1.0782584  42.9572584  14.7587584   1.4412584  42.2992584  16.0727584
   5.8912584  43.4152584  34.5927584   6.4222584  44.0992584  35.0017584
   6.4642584  42.6492584  34.5677584 -20.2897416  42.2252584  39.6137584
 -20.4667416  43.1642584  39.6567584 -20.8017416  41.9172584  38.8657584
   0.2902584  45.5282584  31.3517584   0.7652584  46.2242584  30.8977584
   0.7762584  44.7302584  31.1417584 -22.6857416  45.6082584  35.6557584
 -21.8057416  45.7422584  35.3017584 -23.1287416  46.4462584  35.5207584
  -1.5237416  42.6472584  20.8567584  -0.6357416  42.8652584  21.1397584
  -1.8497416  43.4512584  20.4507584 -16.7547416  44.4732584  23.6097584
 -16.0447416  44.3602584  22.9777584 -16.8267416  45.4202584  23.7237584
   1.3072584  42.1502584  31.7427584   1.7812584  42.9102584  31.4037584
   1.7352584  41.9532584  32.5757584  -9.0647416  44.8872584  26.2587584
  -8.5617416  45.2822584  25.5467584  -9.3787416  45.6322584  26.7717584
  -5.5907416  40.6762584  24.8827584  -5.3497416  40.1182584  25.6227584
  -5.8107416  41.5192584  25.2797584 -16.6307416  42.0802584  34.4807584
 -15.7747416  41.8682584  34.8537584 -17.1797416  42.2792584  35.2387584
   4.6672584  46.7302584  17.9967584   4.2722584  47.4902584  17.5687584
   4.6462584  46.0432584  17.3307584 -18.1677416  46.6402584  10.9807584
 -18.2567416  47.5762584  11.1597584 -17.2267416  46.4742584  11.0357584
 -19.2277416  43.7282584  25.3427584 -18.5197416  44.1812584  24.8837584
 -19.9597416  44.3452584  25.3237584  -8.4387416  47.0292584  31.1107584
  -8.3797416  47.9812584  31.1877584  -8.4087416  46.8622584  30.1687584
 -19.0207416  41.5732584  16.1607584 -18.0667416  41.6502584  16.1937584
 -19.3037416  42.3182584  15.6307584  -3.2527416  38.4932584  27.8567584
  -2.9547416  38.7832584  26.9947584  -4.1267416  38.8712584  27.9487584
  -6.5697416  41.0272584  17.6557584  -6.3087416  40.1512584  17.3727584
  -5.7497416  41.4542584  17.9017584  -4.9517416  42.0832584  19.4427584
  -4.7847416  43.0132584  19.5987584  -5.1117416  41.7182584  20.3127584
  -1.1077416  38.4462584  30.0257584  -0.4957416  38.2322584  29.3207584
  -1.8507416  38.8552584  29.5817584  -1.6927416  40.5452584  15.3587584
  -1.6957416  41.0942584  16.1437584  -1.2457416  41.0742584  14.6977584
   2.4222584  41.6812584  23.0297584   2.0492584  41.0742584  22.3907584
   3.2782584  41.9132584  22.6697584   2.7092584  40.5752584  12.8937584
   1.8902584  41.0682584  12.8487584   2.4722584  39.7532584  13.3227584
 -11.0117416  42.6152584  26.0857584 -11.7487416  42.8212584  26.6617584
 -10.3097416  43.1962584  26.3777584  -6.7597416  42.9982584  26.3907584
  -6.7257416  42.9442584  27.3457584  -7.3537416  43.7282584  26.2137584
   4.5502584  39.6142584  16.8867584   4.8242584  40.0972584  16.1067584
   5.2072584  38.9252584  16.9857584 -22.6777416  38.7132584  16.7637584
 -22.6727416  38.6412584  15.8087584 -22.1327416  37.9852584  17.0617584
  -5.0037416  39.9322584  12.6347584  -4.9887416  39.7422584  13.5727584
  -4.8107416  39.0922584  12.2167584 -14.9607416  43.0882584  39.4507584
 -14.5857416  43.1732584  40.3267584 -15.4437416  42.2622584  39.4747584
  -1.7147416  41.2812584  38.3377584  -1.1777416  40.7002584  38.8767584
  -1.1007416  41.9372584  38.0067584   6.9322584  39.6842584  33.3467584
   7.1652584  39.0322584  32.6857584   5.9902584  39.5692584  33.4757584
   3.8212584  43.6032584  40.7757584   2.9972584  43.2062584  40.4937584
   3.8162584  44.4732584  40.3767584   3.3102584  39.1112584  37.1587584
   3.0802584  38.5222584  36.4407584   4.1032584  38.7312584  37.5367584
 -19.0107416  41.0742584  12.1557584 -19.6477416  41.5322584  11.6067584
 -19.5377416  40.4882584  12.6977584  -2.0687416  42.3362584  30.8667584
  -1.9437416  42.3862584  29.9197584  -1.1977416  42.4872584  31.2327584
  -5.9707416  39.6442584  37.7097584  -5.3307416  39.0292584  38.0697584
  -5.6837416  40.5012584  38.0247584   1.1512584  40.1012584  33.9817584
   0.2772584  40.3802584  34.2567584   1.1942584  39.1752584  34.2207584
   6.5512584  44.9002584  32.3617584   6.1622584  44.6052584  31.5387584
   6.2192584  44.2872584  33.0177584  -0.4907416  39.0372584  10.6397584
   0.0422584  38.7602584  11.3847584   0.1452584  39.2512584   9.9567584
 -20.7427416  40.8762584  30.2597584 -20.7707416  41.5352584  29.5657584
 -21.4147416  40.2402584  30.0147584 -21.9377416  44.6512584  11.5247584
 -21.6087416  45.1052584  10.7487584 -21.1937416  44.6322584  12.1257584
   5.2302584  43.9972584  46.1687584   4.2902584  44.1172584  46.0327584
   5.4092584  43.1132584  45.8497584 -21.2177416  46.3022584  45.7577584
 -20.8937416  45.5142584  45.3227584 -20.4317416  46.7282584  46.1007584
 -14.4527416  44.8182584  44.1217584 -13.7887416  45.3402584  43.6717584
 -14.8187416  45.4112584  44.7787584  -0.3517416  42.0392584  43.2837584
  -1.1247416  42.0092584  42.7197584  -0.0087416  42.9262584  43.1727584
 -16.7997416  39.3142584  45.0827584 -15.9507416  38.9052584  44.9137584
 -16.6457416  40.2492584  44.9507584 -10.6157416  41.4612584  47.2687584
 -10.2237416  41.9412584  47.9987584  -9.9807416  40.7742584  47.0637584
 -18.3167416  42.7492584  49.2307584 -18.9877416  42.1112584  49.4707584
 -18.0547416  42.5012584  48.3447584 -10.1907416  41.1762584  43.2657584
 -10.5587416  41.5462584  42.4637584  -9.5317416  41.8132584  43.5437584
 -12.6637416  46.9782584  43.5657584 -12.0067416  47.0392584  42.8727584
 -12.2127416  47.2872584  44.3517584 -14.3047416  42.5722584  49.2317584
 -13.9437416  42.8882584  48.4037584 -13.8257416  41.7622584  49.4087584
 -18.6347416  46.4742584  47.1777584 -19.2067416  46.7652584  47.8877584
 -18.4837416  47.2602584  46.6527584 -13.0347416  41.3182584  46.2607584
 -12.1857416  41.1692584  46.6787584 -13.0067416  40.7892584  45.4637584
  -3.8157416  46.7812584  46.5887584  -2.8977416  46.8122584  46.8597584
  -3.9617416  45.8692584  46.3397584  -9.3627416  38.9982584  45.7447584
  -8.5457416  38.9772584  46.2417584  -9.0887416  38.9442584  44.8287584
  -8.0747416  43.4642584  47.3557584  -7.5187416  42.6882584  47.2867584
  -7.5387416  44.1032584  47.8257584  -4.8427416  43.2122584  40.9537584
  -5.7547416  43.4802584  41.0697584  -4.6087416  42.7932584  41.7827584
 -16.4247416  42.3122584  46.8977584 -15.9827416  42.5952584  47.6977584
 -16.0297416  42.8422584  46.2047584  -4.9497416  44.2312584  46.9397584
  -4.0327416  44.0462584  46.7377584  -5.4387416  43.8412584  46.2157584
 -17.4307416  44.2852584  45.1597584 -16.8687416  45.0272584  44.9367584
 -17.6797416  44.4382584  46.0717584  -5.7477416  42.7252584  44.3137584
  -5.4837416  41.8622584  44.6327584  -6.4737416  42.5472584  43.7147584
   6.0242584  45.7062584  42.9077584   6.0632584  45.4122584  43.8177584
   6.7332584  45.2312584  42.4727584 -12.6867416  40.1972584  44.0317584
 -13.2367416  40.2682584  43.2507584 -11.8327416  40.5282584  43.7537584
 -15.5957416  46.4402584  46.0057584 -16.1647416  47.1922584  46.1707584
 -14.8377416  46.5832584  46.5717584  -6.9727416  41.7452584  42.1127584
  -6.4137416  40.9692584  42.0747584  -7.3177416  41.8362584  41.2247584
  -8.9467416  45.1732584  43.0897584  -9.7387416  45.6362584  42.8137584
  -9.2557416  44.5282584  43.7257584  -9.7157416  43.5602584  45.2837584
  -9.1237416  43.5512584  46.0357584 -10.4087416  42.9422584  45.5167584
 -13.6397416  43.8722584  46.3677584 -13.9557416  44.1052584  45.4947584
 -13.3877416  42.9522584  46.2947584  -2.7207416  41.4662584  42.0377584
  -2.3737416  40.7822584  41.4647584  -3.5817416  41.1422584  42.3027584
  -9.1627416  38.8772584  42.4667584  -9.9437416  38.6542584  41.9607584
  -9.1577416  39.8342584  42.4927584 -19.6327416  39.0172584  45.1937584
 -18.6777416  39.0842584  45.1877584 -19.9287416  39.8422584  45.5777584
 -14.4487416  42.6122584  42.4797584 -14.3577416  43.2552584  43.1827584
 -15.2697416  42.1582584  42.6737584 -19.3657416  44.6152584  42.5247584
 -18.8037416  45.2822584  42.1297584 -18.8307416  44.2332584  43.2207584
 -22.6697416  41.9932584  46.4567584 -22.8147416  41.0792584  46.2147584
 -22.7337416  42.0012584  47.4117584  -4.3197416  46.4622584  42.2267584
  -3.6067416  46.8162584  42.7577584  -4.7557416  47.2342584  41.8647584
 -13.7207416  39.6102584  41.7947584 -14.4047416  38.9402584  41.7707584
 -14.1337416  40.3882584  41.4217584  -8.1357416  46.2302584  45.9747584
  -7.4437416  46.1092584  45.3247584  -8.4067416  45.3412584  46.2037584
 -10.5637416  44.7802584  48.4967584  -9.7427416  44.3532584  48.2537584
 -11.2297416  44.3362584  47.9717584   4.9542584  41.2192584  44.5687584
   5.4092584  40.4522584  44.2207584   4.2342584  41.3692584  43.9567584
  -6.9367416  45.4512584  41.2797584  -7.6037416  45.2862584  41.9467584
  -6.3497416  46.0912584  41.6807584   2.6442584  45.4042584  46.1187584
   2.0792584  44.6412584  45.9977584   2.9572584  45.6132584  45.2377584
  -6.0987416  45.4402584  44.5057584  -5.6097416  45.9492584  43.8587584
  -6.0217416  44.5342584  44.2057584   6.7262584  39.1342584  43.9957584
   7.3892584  39.1972584  43.3087584   6.3362584  38.2682584  43.8737584
 -22.2477416  41.8712584  42.7257584 -21.9027416  42.3762584  41.9897584
 -23.1867416  41.8042584  42.5517584 -22.7757416  44.7692584  47.9087584
 -23.3537416  44.3282584  47.2847584 -22.0977416  45.1712584  47.3647584
 -10.7657416  42.2232584  40.9287584 -11.3577416  42.9462584  40.7217584
 -10.0907416  42.2642584  40.2507584 -16.7407416  41.9392584  43.9547584
 -17.0937416  42.8032584  44.1687584 -17.4307416  41.5202584  43.4397584
  -2.6437416  41.6832584  47.7937584  -2.0177416  41.1172584  48.2467584
  -3.3777416  41.7642584  48.4017584   1.6242584  46.6672584  40.7857584
   2.1932584  47.2672584  40.3037584   2.1432584  46.4032584  41.5457584
  -2.3607416  44.1592584  46.5707584  -2.1167416  43.3732584  47.0587584
  -1.5257416  44.5342584  46.2877584   1.9812584  40.5492584  46.5187584
   1.3772584  39.8062584  46.5317584   2.8512584  40.1502584  46.5237584
   1.6982584  42.2202584  48.9567584   1.8592584  41.5602584  48.2827584
   2.5622584  42.3972584  49.3307584   4.4312584  43.4042584  48.6807584
   4.5842584  44.3252584  48.8937584   4.7542584  43.3092584  47.7847584
   0.2142584  46.8682584  44.1247584   0.4082584  47.8042584  44.0697584
   0.6312584  46.5842584  44.9387584  -4.4097416  40.2012584  45.1267584
  -4.6347416  39.4662584  45.6967584  -3.4537416  40.2412584  45.1537584
   0.2812584  44.4792584  42.9057584   0.3112584  45.3972584  43.1747584
  -0.2297416  44.4822584  42.0967584 -14.8837416  39.3632584  47.6807584
 -14.4207416  39.8382584  48.3707584 -15.1947416  40.0462584  47.0867584
   3.2562584  44.6362584  43.4927584   3.9692584  44.9102584  42.9157584
   2.6692584  44.1352584  42.9267584 -21.0927416  43.1822584  44.8467584
 -21.4137416  42.7652584  44.0467584 -21.7207416  42.9232584  45.5207584
   5.0822584  41.3732584  41.4087584   4.3322584  40.8002584  41.5697584
   4.7642584  42.2502584  41.6197584   1.1942584  43.1412584  45.6907584
   1.0782584  42.9572584  44.7587584   1.4412584  42.2992584  46.0727584
   4.6672584  46.7302584  47.9967584   4.2722584  47.4902584  47.5687584
   4.6462584  46.0432584  47.3307584 -18.1677416  46.6402584  40.9807584
 -18.2567416  47.5762584  41.1597584 -17.2267416  46.4742584  41.0357584
 -19.0207416  41.5732584  46.1607584 -18.0667416  41.6502584  46.1937584
 -19.3037416  42.3182584  45.6307584  -6.5697416  41.0272584  47.6557584
  -6.3087416  40.1512584  47.3727584  -5.7497416  41.4542584  47.9017584
  -1.6927416  40.5452584  45.3587584  -1.6957416  41.0942584  46.1437584
  -1.2457416  41.0742584  44.6977584   2.7092584  40.5752584  42.8937584
   1.8902584  41.0682584  42.8487584   2.4722584  39.7532584  43.3227584
   4.5502584  39.6142584  46.8867584   4.8242584  40.0972584  46.1067584
   5.2072584  38.9252584  46.9857584 -22.6777416  38.7132584  46.7637584
 -22.6727416  38.6412584  45.8087584 -22.1327416  37.9852584  47.0617584
  -5.0037416  39.9322584  42.6347584  -4.9887416  39.7422584  43.5727584
  -4.8107416  39.0922584  42.2167584 -19.0107416  41.0742584  42.1557584
 -19.6477416  41.5322584  41.6067584 -19.5377416  40.4882584  42.6977584
  -0.4907416  39.0372584  40.6397584   0.0422584  38.7602584  41.3847584
   0.1452584  39.2512584  39.9567584 -21.9377416  44.6512584  41.5247584
 -21.6087416  45.1052584  40.7487584 -21.1937416  44.6322584  42.1257584
  26.5952584  -4.5617416 -15.9182416  26.5002584  -5.4397416 -15.5482416
  25.8302584  -4.4567416 -16.4832416  28.4812584 -16.3027416  10.5507584
  27.7342584 -16.6117416  11.0637584  28.1132584 -15.6397416   9.9667584
  14.1572584   5.7082584 -15.2472416  13.4522584   5.1512584 -14.9172416
  14.1822584   6.4472584 -14.6392416  28.3182584 -20.4167416   2.3547584
  28.1582584 -21.2657416   1.9427584  28.8282584 -19.9277416   1.7087584
  19.0782584  -9.5977416  -7.2992416  18.4832584 -10.3207416  -7.1002416
  19.9502584  -9.9897416  -7.2712416  13.0722584 -14.5967416 -10.6792416
  12.6072584 -15.3937416 -10.9322416  13.0962584 -14.0697416 -11.4782416
  22.2982584  -3.7377416  -3.7752416  21.4872584  -3.9197416  -4.2502416
  22.9832584  -3.7937416  -4.4422416   7.8292584  -7.4927416 -10.8442416
   7.0062584  -7.1727416 -11.2162416   8.1022584  -8.1937416 -11.4352416
  26.0492584  -2.9527416 -10.0962416  25.6622584  -3.3937416  -9.3392416
  25.3422584  -2.4097416 -10.4442416  16.2572584 -12.8837416  -1.5542416
  15.6512584 -13.3167416  -0.9522416  16.5872584 -13.5897416  -2.1102416
  18.4192584 -10.2177416 -13.6762416  17.8352584  -9.7677416 -13.0662416
  18.8722584 -10.8687416 -13.1402416  24.6602584  -6.3387416  -1.4722416
  25.1412584  -6.4217416  -0.6482416  25.3252584  -6.4577416  -2.1502416
  29.2732584 -12.0617416 -13.0442416  29.1842584 -11.8277416 -13.9682416
  29.9322584 -11.4547416 -12.7062416  12.8082584  -7.8797416 -10.4302416
  12.9582584  -7.8487416  -9.4852416  11.9472584  -7.4797416 -10.5502416
  36.5012584  -2.6057416  -4.1782416  36.8412584  -2.0327416  -3.4902416
  37.0912584  -2.4677416  -4.9192416   9.7262584 -14.4027416   9.4667584
  10.4672584 -13.9907416   9.9127584  10.0562584 -14.6057416   8.5917584
  20.1242584   3.9862584  -5.1822416  21.0572584   3.7942584  -5.2712416
  19.7172584   3.5552584  -5.9332416  35.2302584 -16.0027416 -13.8312416
  34.2902584 -15.8827416 -13.9672416  35.4092584 -16.8867416 -14.1502416
  25.5562584  -0.2067416 -18.6992416  24.9022584   0.4832584 -18.8132416
  25.4722584  -0.7487416 -19.4832416  17.8782584  -5.5817416 -12.7152416
  18.3272584  -4.7407416 -12.6312416  17.0702584  -5.4727416 -12.2132416
  25.6252584 -16.7087416   5.6657584  25.3082584 -17.0517416   6.5007584
  25.5652584 -17.4497416   5.0627584  35.9932584 -11.6267416  -3.6072416
  35.0542584 -11.5657416  -3.7812416  36.0502584 -11.9697416  -2.7152416
   9.5822584  -0.7957416 -15.5342416  10.3752584  -0.2597416 -15.5332416
   9.8662584  -1.6457416 -15.1982416  25.1712584  -7.1097416  -8.7152416
  24.4452584  -7.2017416  -9.3322416  24.8972584  -7.6097416  -7.9462416
  20.7232584  -6.8877416 -18.8452416  20.0942584  -7.5887416 -18.6742416
  20.2712584  -6.3027416 -19.4532416  24.1262584   0.4622584  -6.0132416
  24.4712584   1.3382584  -6.1822416  24.8562584  -0.1257416  -6.2072416
  18.9532584   1.5522584 -10.8372416  18.8832584   2.3162584 -11.4082416
  19.2692584   0.8522584 -11.4092416  21.7242584   4.4832584 -17.4892416
  22.3482584   4.4772584 -18.2152416  22.1652584   3.9982584 -16.7912416
   8.7822584 -13.6977416 -14.2422416   9.1062584 -14.4857416 -14.6772416
   9.5682584 -13.2717416 -13.8992416  11.5712584 -19.8707416  -2.7422416
  10.6402584 -19.7337416  -2.9162416  11.9612584 -19.9947416  -3.6072416
  24.1712584  -7.1847416   9.0047584  25.0132584  -7.5827416   9.2257584
  24.3342584  -6.7197416   8.1837584  18.2122584 -19.3847416  -1.2342416
  17.9502584 -18.4637416  -1.2412416  18.8852584 -19.4377416  -0.5562416
  22.3482584 -20.8857416 -10.5082416  21.9582584 -20.1377416 -10.9602416
  22.2832584 -21.6057416 -11.1352416  22.6122584  -7.5307416  -6.2852416
  22.0032584  -7.5847416  -5.5482416  22.0612584  -7.3097416  -7.0362416
  14.0682584   5.3602584  -9.6222416  14.2852584   6.2432584  -9.3242416
  14.2102584   5.3842584 -10.5682416  19.4702584 -12.4897416   7.5797584
  19.0692584 -11.7387416   7.1437584  20.1792584 -12.1137416   8.1017584
  35.7282584  -5.9947416 -11.7372416  35.6422584  -5.4167416 -12.4952416
  35.3812584  -5.4847416 -11.0052416  15.5472584 -15.1817416 -15.8782416
  16.2112584 -14.6597416 -16.3282416  15.1812584 -14.5887416 -15.2212416
  31.5782584 -12.1547416  -2.0152416  31.9142584 -13.0477416  -2.0852416
  31.4842584 -12.0067416  -1.0742416  14.9872584  -7.7957416 -12.2882416
  14.3522584  -8.0567416 -11.6212416  15.5582584  -8.5577416 -12.3872416
  16.2792584 -18.7587416  -7.0792416  16.4592584 -18.3027416  -7.9012416
  16.9662584 -18.4597416  -6.4822416  23.0442584  -7.5727416 -10.3692416
  22.3582584  -6.9997416 -10.7112416  22.5952584  -8.3947416 -10.1722416
  29.6482584 -17.9607416 -16.7162416  28.8752584 -17.9907416 -17.2802416
  29.9912584 -17.0737416 -16.8272416  28.4222584  -1.0647416  -4.4332416
  28.0692584  -0.5277416  -3.7232416  29.1412584  -0.5447416  -4.7932416
  14.4012584 -13.3627416  10.4717584  14.5532584 -12.8237416  11.2477584
  15.2582584 -13.4247416  10.0507584  18.3852584   4.7312584 -17.8222416
  18.4442584   5.6812584 -17.7202416  18.8322584   4.3792584 -17.0532416
  11.8802584 -17.9547416  -7.0332416  11.0272584 -17.6157416  -7.3072416
  12.4242584 -17.1747416  -6.9262416  20.3402584  -9.2467416   7.6777584
  20.7672584  -9.5187416   6.8647584  21.0552584  -9.1617416   8.3077584
  22.7642584 -17.0637416   3.8277584  23.3162584 -16.4227416   3.3797584
  22.4602584 -17.6467416   3.1327584  21.7262584  -2.0397416 -11.5732416
  21.2142584  -2.6047416 -10.9952416  21.1002584  -1.3857416 -11.8852416
  12.1102584  -7.4857416 -13.3262416  12.4362584  -8.2847416 -12.9112416
  11.5892584  -7.0577416 -12.6472416  19.1352584 -16.6347416  -0.9492416
  20.0042584 -16.2487416  -1.0562416  18.9592584 -16.5737416  -0.0102416
  10.1932584   2.1552584 -14.3872416   9.7532584   1.5652584 -13.7752416
  10.9842584   1.6842584 -14.6492416  16.5842584 -15.5677416  -5.8202416
  15.6612584 -15.7447416  -5.6392416  16.7382584 -15.9557416  -6.6812416
  19.9202584 -16.8237416  -6.3452416  20.7492584 -17.2897416  -6.4572416
  19.5632584 -17.1647416  -5.5242416  18.1122584  -6.0507416  -7.4792416
  17.2642584  -6.4577416  -7.6552416  17.9222584  -5.1137416  -7.4242416
  18.4712584 -12.9137416 -10.0302416  18.5342584 -13.6227416  -9.3892416
  17.8662584 -12.2867416  -9.6362416  14.5702584   7.2462584 -17.7002416
  13.8742584   6.7212584 -18.0952416  14.4802584   7.0942584 -16.7592416
  22.8832584  -2.9587416 -14.8312416  23.0602584  -2.9627416 -15.7712416
  23.4412584  -3.6527416 -14.4792416  13.2002584 -20.6857416 -14.9172416
  14.0492584 -21.0947416 -15.0862416  13.3542584 -19.7507416 -15.0492416
  16.6052584 -12.8447416 -12.8162416  17.0942584 -13.1107416 -12.0372416
  17.2122584 -12.2837416 -13.2992416  16.2662584 -11.4847416  -9.4012416
  16.5022584 -11.2447416  -8.5052416  15.3332584 -11.6957416  -9.3552416
  15.8562584   1.5192584 -13.6532416  16.3572584   1.1372584 -12.9322416
  16.4982584   1.6442584 -14.3522416  19.3842584 -18.5387416 -12.7312416
  19.7762584 -18.0587416 -12.0012416  20.0192584 -19.2257416 -12.9362416
   9.9572584 -11.2447416  -3.4412416   9.3912584 -10.7727416  -4.0522416
   9.3512584 -11.6977416  -2.8542416  10.9862584 -15.6367416  -0.8342416
  11.7292584 -16.1717416  -1.1122416  10.2352584 -16.0117416  -1.2952416
  14.4582584 -16.0787416  -8.6102416  13.8432584 -15.5007416  -9.0622416
  14.8342584 -16.6197416  -9.3042416  11.6832584 -17.2507416 -10.7692416
  11.0122584 -17.8887416 -10.5292416  11.9452584 -17.4987416 -11.6552416
  25.3992584 -10.3687416  -8.2882416  25.9832584 -10.4077416  -9.0452416
  24.5222584 -10.4717416  -8.6552416  19.8092584 -18.8237416 -16.7342416
  19.4412584 -18.4537416 -17.5362416  20.4682584 -18.1867416 -16.4562416
  30.8722584  -2.3147416   6.2427584  30.1382584  -2.6197416   6.7747584
  31.2682584  -1.6127416   6.7597584  20.7982584 -11.8727416 -16.2122416
  21.2752584 -12.6197416 -15.8522416  21.4142584 -11.1417416 -16.1492416
  17.8742584 -10.2807416 -18.9052416  18.1562584  -9.6007416 -19.5172416
  17.7872584  -9.8267416 -18.0662416  13.3912584   7.2202584 -11.9882416
  12.8162584   7.7562584 -11.4432416  14.1322584   7.7912584 -12.1912416
  22.8322584 -14.9537416 -10.3932416  22.8132584 -14.9537416  -9.4362416
  23.7342584 -14.7197416 -10.6142416  23.3562584  -1.2377416  -9.5392416
  23.0902584  -1.4617416 -10.4302416  22.9882584  -1.9347416  -8.9962416
  26.0302584  -1.8767416  -5.6912416  26.8462584  -1.7577416  -5.2062416
  26.2362584  -1.5947416  -6.5822416  29.3522584  -9.5847416 -10.6862416
  29.3962584  -8.6337416 -10.7782416  30.0112584  -9.9167416 -11.2962416
   8.7692584 -19.7287416  -7.0012416   8.8632584 -20.1677416  -7.8462416
   8.9742584 -18.8117416  -7.1822416  19.8242584  -8.4197416  -5.0462416
  19.4562584  -8.2277416  -5.9092416  20.1752584  -9.3067416  -5.1272416
  17.3362584 -13.0217416 -16.4342416  17.9932584 -12.9607416 -17.1272416
  17.7872584 -12.7127416 -15.6482416  17.1662584 -19.9447416 -10.2142416
  18.0792584 -19.7817416 -10.4512416  17.2092584 -20.3107416  -9.3312416
  19.7092584 -12.1737416 -12.3362416  20.1172584 -12.6097416 -13.0852416
  19.8112584 -12.7927416 -11.6132416  27.8752584  -7.0107416  -8.5222416
  27.6632584  -6.5937416  -7.6872416  27.0242584  -7.2097416  -8.9132416
  25.4442584 -10.7527416   8.2167584  25.1332584 -10.6927416   7.3137584
  26.3922584 -10.6387416   8.1527584  11.6632584 -14.5747416   1.7147584
  11.5692584 -14.8487416   0.8017584  11.6532584 -13.6187416   1.6807584
  23.9922584 -12.7287416   2.5327584  23.3192584 -13.3027416   2.1667584
  24.5772584 -13.3177416   3.0087584  24.5272584 -20.2507416  -2.0082416
  24.3392584 -19.4007416  -1.6102416  23.7852584 -20.8017416  -1.7602416
  13.2792584  -6.7077416  -7.9372416  12.6602584  -6.1887416  -8.4502416
  13.1892584  -6.3737416  -7.0442416  20.6342584  -5.3927416 -10.8762416
  20.5722584  -5.6247416 -11.8022416  19.9732584  -4.7117416 -10.7542416
  15.6952584 -17.4277416 -10.7682416  16.0562584 -17.1117416 -11.5962416
  16.1742584 -18.2377416 -10.5912416  28.1242584 -13.4437416  -1.5272416
  27.6832584 -13.1257416  -0.7392416  28.4892584 -12.6567416  -1.9322416
  10.7402584   7.6292584  -4.9922416  10.6462584   7.1652584  -5.8242416
  11.2712584   8.3972584  -5.2042416  14.8392584  -5.9767416 -18.8192416
  15.3312584  -6.6597416 -18.3642416  15.3432584  -5.1767416 -18.6692416
  16.9652584 -18.6817416 -13.7392416  17.8142584 -18.8307416 -13.3212416
  16.9932584 -19.2107416 -14.5362416  32.1382584 -10.8567416   3.0537584
  31.5992584 -11.4257416   3.6027584  31.5412584 -10.1667416   2.7627584
  20.1852584 -15.4867416   1.5247584  20.4602584 -14.5727416   1.4537584
  20.6482584 -15.8167416   2.2947584  21.1852584 -11.5467416   9.7157584
  21.9122584 -12.1067416   9.9877584  21.5472584 -11.0117416   9.0087584
  22.2002584 -14.4487416   8.6677584  22.4252584 -14.5237416   9.5947584
  21.3432584 -14.8687416   8.5937584  26.9692584  -4.5447416 -12.5872416
  26.8192584  -3.7697416 -13.1272416  26.3232584  -4.4767416 -11.8842416
  32.1202584  -6.2457416  -9.7932416  32.5092584  -6.9787416  -9.3152416
  32.5212584  -6.2847416 -10.6612416  12.9352584 -10.0157416  -7.0942416
  12.7032584  -9.7967416  -6.1912416  13.7782584  -9.5857416  -7.2352416
  36.2642584 -19.1977416  -5.8002416  36.3832584 -18.8427416  -4.9192416
  37.1532584 -19.3387416  -6.1252416  22.5402584 -13.7037416  -5.8102416
  22.6992584 -14.4237416  -6.4202416  23.4132584 -13.4377416  -5.5212416
  21.1352584   6.1812584  -8.1752416  20.8052584   6.0712584  -7.2832416
  20.4062584   6.5772584  -8.6532416   9.6692584  -8.1327416  -7.8632416
  10.1602584  -8.2477416  -7.0492416   9.5862584  -7.1837416  -7.9602416
  11.2742584 -10.5937416  -9.1892416  10.5512584  -9.9827416  -9.0522416
  11.8802584 -10.4137416  -8.4692416   9.6632584 -19.2967416  -9.8942416
   9.1142584 -18.5587416 -10.1612416   9.0752584 -20.0517416  -9.9132416
  10.2132584  -5.4757416  -7.7842416  10.1682584  -5.4057416  -6.8302416
  10.3022584  -4.5717416  -8.0872416  19.7672584  -7.3747416  -2.6392416
  19.8812584  -7.8207416  -3.4792416  20.5862584  -6.8967416  -2.5082416
  22.9042584  -9.5027416   8.6447584  23.7412584  -9.9627416   8.7177584
  23.1062584  -8.5987416   8.8867584  16.6882584  -5.6347416 -15.5062416
  16.9592584  -5.7667416 -14.5972416  17.0992584  -4.8087416 -15.7612416
  15.2132584 -20.5147416  -5.3172416  15.3802584 -19.7617416  -5.8842416
  15.7782584 -20.3717416  -4.5562416  19.5232584   1.8732584 -15.3482416
  18.7642584   1.3572584 -15.6192416  20.2682584   1.4402584 -15.7642416
  11.0492584   6.7012584 -13.2702416  10.7262584   7.5562584 -13.5552416
  11.9332584   6.8732584 -12.9482416  26.1842584 -13.2187416 -13.4112416
  27.1022584 -13.1877416 -13.1402416  26.0382584 -14.1307416 -13.6602416
  12.9962584  -5.4877416 -15.0682416  13.7882584  -5.9237416 -15.3822416
  12.8112584  -5.9047416 -14.2262416  22.8282584  -9.9147416 -15.6572416
  23.6482584 -10.3917416 -15.5342416  22.6572584  -9.5067416 -14.8072416
  20.8142584  -6.5077416  -8.1242416  20.0292584  -6.1957416  -7.6742416
  20.6942584  -6.2347416  -9.0332416  16.0812584  -1.1497416 -17.7812416
  15.4762584  -1.7877416 -17.4032416  15.9652584  -0.3637416 -17.2472416
  20.6372584 -21.0017416 -14.2552416  21.4542584 -21.0227416 -13.7582416
  20.9112584 -21.0557416 -15.1712416  15.3242584  -4.2437416  -9.6962416
  15.3052584  -3.3257416  -9.9692416  15.1902584  -4.2147416  -8.7492416
  19.0542584 -12.6947416 -18.5622416  18.6662584 -11.8637416 -18.8342416
  19.9982584 -12.5397416 -18.5882416  21.2482584  -0.8597416   0.4847584
  20.3752584  -1.0457416   0.8287584  21.3072584  -1.3847416  -0.3142416
  15.9752584  -6.7387416  -8.8682416  15.0922584  -6.8937416  -8.5312416
  15.9232584  -5.8797416  -9.2882416  32.9692584  -5.9887416  -3.7852416
  33.7882584  -6.1137416  -4.2642416  33.0242584  -6.6017416  -3.0522416
  21.9252584 -16.5357416 -12.6442416  22.4812584 -17.3117416 -12.7132416
  22.4612584 -15.8967416 -12.1742416  21.9952584  -6.0727416  -2.5192416
  22.1062584  -5.2647416  -3.0202416  22.8662584  -6.2597416  -2.1692416
  25.9992584  -2.9207416  10.1617584  26.3672584  -3.8027416  10.1107584
  26.6912584  -2.3517416   9.8247584  34.6462584  -9.0847416  -6.7292416
  34.1612584  -9.9047416  -6.6422416  35.5092584  -9.3487416  -7.0482416
  26.9972584 -10.6127416 -10.5612416  27.9002584 -10.3037416 -10.6392416
  26.4822584  -9.9767416 -11.0582416  20.8692584  -9.5257416 -11.0692416
  20.1512584  -9.1187416 -10.5832416  20.5842584 -10.4287416 -11.2062416
  11.6252584 -21.5957416 -10.2282416  12.1472584 -21.2367416  -9.5112416
  10.9012584 -20.9777416 -10.3312416  10.3912584  -6.2787416 -11.3852416
   9.7932584  -6.1517416 -12.1212416   9.9192584  -6.8587416 -10.7892416
  20.6852584 -11.3177416  -3.9592416  21.3112584 -10.6037416  -3.8392416
  21.2042584 -12.0307416  -4.3342416  35.9952584 -14.8137416  -4.2632416
  35.7882584 -15.2257416  -5.1012416  35.1712584 -14.4147416  -3.9822416
   9.3872584 -19.1327416  -4.3602416   9.1792584 -19.5507416  -5.1962416
   9.9522584 -18.3957416  -4.5952416  27.5472584 -20.3737416  -4.9862416
  28.4382584 -20.5007416  -5.3122416  27.5212584 -19.4567416  -4.7112416
  20.1462584  -3.3747416 -14.6692416  20.0192584  -3.0877416 -13.7652416
  21.0792584  -3.2387416 -14.8352416  18.4012584  -8.3347416  -9.7492416
  18.6862584  -8.3797416  -8.8372416  17.6622584  -7.7267416  -9.7402416
  12.4822584  -4.9687416 -18.1362416  13.3912584  -5.1647416 -17.9072416
  12.2882584  -5.5547416 -18.8672416  13.1542584 -20.2697416  -8.5412416
  13.9022584 -19.6747416  -8.4972416  12.3952584 -19.7157416  -8.3572416
  21.2302584 -12.2637416  -9.3482416  20.2792584 -12.3377416  -9.4302416
  21.5702584 -13.0467416  -9.7822416  21.0342584  -5.5727416   0.5347584
  20.5762584  -5.9597416  -0.2112416  21.3462584  -4.7267416   0.2107584
  25.1192584  -7.6707416  -5.2402416  24.1662584  -7.6507416  -5.1602416
  25.4382584  -7.4217416  -4.3722416  25.1572584 -16.7877416 -19.0462416
  24.2452584 -16.5197416 -18.9302416  25.3912584 -17.2067416 -18.2172416
  13.2752584  -9.8097416 -16.2542416  12.4552584  -9.3167416 -16.2912416
  13.9132584  -9.1877416 -15.9052416  27.9782584  -9.6057416  -1.7792416
  28.5242584 -10.3187416  -2.1102416  28.1042584  -8.8947416  -2.4082416
  23.2892584 -10.8187416  -9.7982416  22.5002584 -11.2077416  -9.4212416
  23.5262584 -11.4037416 -10.5172416  19.0732584  -9.6247416 -16.2402416
  18.7892584  -9.6027416 -15.3272416  19.4772584 -10.4857416 -16.3462416
  23.9952584  -0.9987416  -3.4112416  24.7342584  -1.5927416  -3.5422416
  23.9132584  -0.5297416  -4.2422416  13.5752584 -17.6877416 -13.1022416
  14.0172584 -17.4047416 -12.3022416  13.9702584 -17.1577416 -13.7952416
  25.0152584 -10.8947416   5.3337584  24.2442584 -11.3577416   5.0057584
  25.7522584 -11.3107416   4.8877584  28.1862584  -4.7487416 -17.8942416
  28.5432584  -3.8747416 -18.0532416  27.5982584  -4.6357416 -17.1482416
  34.3462584  -8.4787416  -2.8502416  34.6942584  -9.0647416  -2.1782416
  33.6642584  -8.9907416  -3.2852416  35.6752584 -10.6307416  -9.7392416
  36.0892584 -10.3907416  -8.9102416  36.0952584 -10.0677416 -10.3892416
  22.0922584   5.0032584 -10.5132416  22.0292584   5.2592584  -9.5922416
  22.0402584   4.0472584 -10.5002416  13.6252584 -12.3247416  -9.7122416
  12.8472584 -11.7697416  -9.7692416  13.3862584 -13.1227416 -10.1842416
  25.1672584 -11.3697416 -15.0402416  25.7572584 -10.6257416 -14.9152416
  25.4192584 -11.9927416 -14.3592416  21.7572584 -10.2337416  -6.8752416
  22.5062584  -9.6437416  -6.9642416  22.0352584 -11.0407416  -7.3092416
  17.7262584 -16.7287416  -8.2952416  17.6402584 -16.0577416  -8.9732416
  18.5732584 -16.5507416  -7.8872416  15.1952584  -7.7647416 -15.0932416
  15.8772584  -7.1507416 -15.3642416  15.1192584  -7.6377416 -14.1472416
  15.6992584   7.9842584 -14.6602416  16.4532584   8.2502584 -15.1872416
  15.8552584   8.3802584 -13.8032416  11.2312584   5.6902584  -9.4272416
  12.1662584   5.4822584  -9.4252416  11.1932584   6.6212584  -9.6452416
  25.0502584 -15.7687416 -13.0602416  25.9672584 -15.9537416 -13.2622416
  24.5612584 -16.1587416 -13.7842416  32.0142584 -14.1357416 -10.7702416
  32.1242584 -14.8347416 -11.4152416  32.6922584 -13.4977416 -10.9902416
  16.8432584  -9.7237416 -11.5042416  17.5972584  -9.2877416 -11.1072416
  16.4712584 -10.2517416 -10.7982416  25.0342584 -10.2327416   1.6927584
  24.7712584 -11.0687416   2.0767584  24.2172584  -9.7427416   1.5997584
  23.6002584 -17.9367416  -0.3322416  24.3032584 -17.2867416  -0.3352416
  23.3902584 -18.0587416   0.5937584  18.8382584 -13.4387416   4.2267584
  19.1132584 -14.0717416   4.8907584  19.1242584 -12.5927416   4.5707584
  25.5322584 -12.9297416  -2.3642416  25.3882584 -12.1147416  -1.8832416
  26.4482584 -13.1497416  -2.1952416  15.0172584 -11.8607416 -17.4782416
  15.8922584 -12.1707416 -17.2462416  14.5632584 -11.7717416 -16.6402416
  14.6602584 -12.0117416   7.1087584  14.2722584 -11.4147416   7.7487584
  15.0622584 -11.4377416   6.4577584  20.6812584 -13.2057416  -1.5982416
  19.7652584 -13.0927416  -1.3422416  20.9112584 -12.3857416  -2.0352416
  34.3262584  -8.0757416 -12.8042416  33.4062584  -7.8417416 -12.9262416
  34.7242584  -7.2917416 -12.4262416  22.8922584  -7.9197416   2.1287584
  22.1222584  -7.3537416   2.0727584  22.9382584  -8.1717416   3.0507584
  12.5692584 -15.7147416 -14.8402416  13.1312584 -14.9727416 -15.0632416
  12.3202584 -15.5617416 -13.9282416  28.6932584  -0.6747416   2.2827584
  28.7232584   0.2792584   2.2087584  28.4102584  -0.9727416   1.4187584
  23.3922584  -8.7817416   4.9467584  24.1452584  -9.1847416   5.3787584
  22.7012584  -9.4427416   5.0027584  27.5012584  -8.8837416   2.1397584
  26.7592584  -8.8587416   2.7427584  27.2272584  -8.3427416   1.3987584
  30.7802584 -10.2897416 -16.0392416  29.8882584  -9.9437416 -16.0572416
  31.3052584  -9.6217416 -16.4802416  25.6102584  -6.7947416   1.3457584
  26.0332584  -6.3737416   2.0947584  24.7182584  -6.9737416   1.6437584
  22.1692584  -6.4007416   4.5747584  22.8242584  -5.8467416   4.1497584
  22.6802584  -7.0677416   5.0327584  27.3202584  -4.1517416  -2.1232416
  28.0502584  -3.5487416  -2.2622416  27.4582584  -4.4967416  -1.2412416
  24.2522584 -17.2747416 -15.6862416  24.5162584 -18.1377416 -15.3672416
  23.5262584 -17.4527416 -16.2852416  19.3362584  -8.5157416   4.1007584
  19.9892584  -8.4087416   3.4087584  19.0212584  -7.6287416   4.2727584
  16.4932584 -16.8167416  -2.7012416  15.6712584 -16.7997416  -3.1912416
  16.2242584 -16.8557416  -1.7832416  17.4782584 -11.6787416  -6.7822416
  18.0342584 -12.4507416  -6.8902416  17.3762584 -11.5877416  -5.8342416
  18.7132584 -10.9107416   5.2527584  18.9682584 -10.0777416   4.8547584
  17.9472584 -11.1907416   4.7517584  36.0242584 -14.2937416 -17.0922416
  36.0632584 -14.5877416 -16.1822416  36.7332584 -14.7687416 -17.5272416
  20.0252584 -15.4697416   6.4757584  19.4152584 -14.7657416   6.6937584
  19.4832584 -16.1337416   6.0497584  29.2672584 -12.1787416  10.1037584
  30.1532584 -12.5387416  10.0507584  28.6932584 -12.9337416   9.9787584
  25.0302584 -15.7647416  -1.0282416  25.9332584 -15.9457416  -1.2912416
  24.9792584 -14.8097416  -0.9852416  23.0892584  -2.1587416   5.4857584
  22.7812584  -2.7277416   6.1907584  24.0432584  -2.1757416   5.5627584
  19.5032584  -3.7277416  -0.9052416  18.7932584  -3.7787416  -1.5452416
  20.1532584  -3.1557416  -1.3132416  28.7702584 -11.4727416  -5.8222416
  27.9952584 -11.0507416  -5.4512416  28.8932584 -11.0467416  -6.6702416
  21.8732584   7.6732584   7.3207584  22.5662584   8.2062584   6.9297584
  21.5312584   8.2112584   8.0347584  12.8672584   2.0542584 -19.2982416
  13.2882584   2.3032584 -18.4752416  13.5772584   1.6992584 -19.8322416
  10.2212584  -3.2977416 -17.9472416  10.3502584  -2.3497416 -17.9182416
  11.0662584  -3.6467416 -18.2282416  12.8572584 -13.3907416  -1.1282416
  13.4562584 -13.6867416  -0.4422416  12.3822584 -14.1797416  -1.3882416
  13.1042584 -15.3017416   3.7957584  13.0572584 -16.2577416   3.7807584
  12.4512584 -15.0187416   3.1567584  10.7482584  -8.7837416 -16.1052416
   9.9152584  -9.1517416 -15.8082416  10.6552584  -7.8407416 -15.9692416
  19.2732584 -19.2777416   6.2747584  19.0882584 -19.2237416   7.2117584
  18.8682584 -18.4937416   5.9037584  27.3092584 -17.7287416  -4.3532416
  27.8012584 -17.0647416  -4.8362416  26.4572584 -17.7597416  -4.7882416
  12.8892584 -15.0047416   8.5847584  13.4662584 -14.7817416   7.8547584
  13.4232584 -14.8587416   9.3657584  16.2162584 -11.4657416   4.0227584
  15.5582584 -10.8727416   4.3857584  15.7302584 -12.2617416   3.8067584
   9.8292584 -12.3777416  -6.7252416   9.3182584 -11.7567416  -6.2072416
   9.1772584 -12.9587416  -7.1152416  17.3132584 -19.8027416 -15.9682416
  16.7632584 -19.7317416 -16.7492416  18.1672584 -19.4717416 -16.2462416
  22.7502584   3.9842584   6.9057584  22.0152584   3.4312584   6.6417584
  23.2832584   4.0682584   6.1147584  14.3482584 -14.4257416   6.1607584
  13.8672584 -14.5397416   5.3417584  14.4672584 -13.4797416   6.2397584
  21.5042584 -10.7457416   5.6197584  20.6662584 -10.8797416   5.1777584
  21.8032584 -11.6277416   5.8397584  31.9612584 -15.4957416  -2.2342416
  31.0222584 -15.5357416  -2.4162416  32.3752584 -15.8247416  -3.0322416
  23.4982584  -3.7197416  -0.7302416  23.6632584  -3.0317416  -1.3762416
  23.8602584  -4.5117416  -1.1262416  18.6162584 -20.1517416   2.9837584
  18.9912584 -20.2707416   3.8567584  19.3662584 -19.9457416   2.4257584
  11.5672584 -19.5307416   3.2117584  12.2382584 -18.9787416   3.6147584
  10.9472584 -18.9117416   2.8277584  14.9952584  -5.0217416 -12.3162416
  14.8082584  -5.9517416 -12.1912416  15.0262584  -4.6607416 -11.4302416
   8.9682584 -20.9397416   9.5557584   9.7682584 -20.4937416   9.8337584
   8.3012584 -20.2527416   9.5477584  19.9242584  -9.3517416  -0.4222416
  19.4222584 -10.1417416  -0.6192416  19.8452584  -8.8147416  -1.2112416
  18.0052584 -17.0557416   5.3257584  17.1062584 -16.9927416   5.6487584
  17.9152584 -17.1017416   4.3737584  14.6042584 -13.3187416   3.1587584
  14.1972584 -14.1767416   3.2767584  14.0912584 -12.9027416   2.4657584
  13.1522584 -19.0797416  10.2717584  12.5962584 -19.1517416  11.0467584
  12.6682584 -19.5377416   9.5847584  36.1272584 -21.6607416   7.9877584
  36.4972584 -20.9167416   8.4627584  36.6522584 -21.7217416   7.1897584
  26.0202584 -18.0347416   2.9697584  26.0522584 -18.9487416   3.2537584
  26.5302584 -18.0177416   2.1597584  20.2272584  -7.1637416 -16.1392416
  20.6232584  -6.8887416 -16.9652416  19.7952584  -7.9927416 -16.3442416
  21.8512584 -19.9217416   4.9477584  22.4922584 -20.0147416   5.6527584
  21.0842584 -19.5357416   5.3707584  14.4042584 -13.5597416 -13.9942416
  13.8352584 -12.8077416 -13.8292416  15.1622584 -13.4167416 -13.4282416
  37.3092584 -13.4007416  -7.9582416  37.3862584 -14.3147416  -8.2332416
  36.4872584 -13.1017416  -8.3462416  28.2582584 -11.9257416 -17.3662416
  28.7262584 -12.5487416 -16.8112416  28.7382584 -11.9347416 -18.1952416
  12.0882584  -2.7127416 -12.8892416  12.4852584  -1.8677416 -12.6762416
  12.6022584  -3.0397416 -13.6272416   8.0712584   7.5672584 -18.1632416
   8.3712584   8.0792584 -18.9142416   8.2312584   6.6572584 -18.4132416
  14.1022584 -16.9957416  -3.9092416  13.6202584 -16.4437416  -4.5242416
  13.4752584 -17.1807416  -3.2102416  22.4442584 -13.2867416   5.9527584
  21.7302584 -13.9197416   6.0237584  22.9152584 -13.3617416   6.7827584
  23.3452584  -4.7307416 -12.4672416  22.6402584  -5.0247416 -13.0452416
  22.9032584  -4.4887416 -11.6532416  22.6362584 -21.4047416  -6.1512416
  23.3012584 -22.0547416  -5.9222416  22.7812584 -20.6857416  -5.5372416
  31.2202584  -2.1857416   2.0297584  31.4782584  -3.0697416   2.2917584
  30.3652584  -2.0537416   2.4407584  21.5892584  -3.3707416  -8.6402416
  21.5642584  -3.4227416  -7.6852416  21.4802584  -4.2767416  -8.9322416
  12.3082584 -17.5597416   7.4927584  11.3802584 -17.4247416   7.3017584
  12.5422584 -16.8357416   8.0727584  28.7352584 -19.2867416   4.9257584
  28.3882584 -19.4497416   4.0487584  28.6362584 -20.1217416   5.3827584
  21.8262584   1.5772584  -9.2142416  22.0142584   2.0422584 -10.0302416
  21.9492584   0.6532584  -9.4312416  22.5092584  -9.5107416  -3.0462416
  22.1282584  -8.7527416  -2.6022416  23.3662584  -9.6237416  -2.6352416
  29.4862584  -3.7547416   4.4277584  29.3762584  -4.5397416   4.9647584
  29.9092584  -3.1237416   5.0087584  16.9092584  -4.3017416 -18.7362416
  17.6742584  -4.6767416 -19.1722416  17.2712584  -3.8047416 -18.0022416
   7.3602584 -12.7577416   0.9907584   7.0762584 -13.5607416   1.4267584
   7.1742584 -12.0627416   1.6217584  18.5582584 -11.6357416  -0.6252416
  17.9442584 -12.2937416  -0.9502416  18.4062584 -11.6107416   0.3197584
  21.5802584  -0.6307416 -18.3292416  20.7102584  -0.3457416 -18.6082416
  22.0422584  -0.8247416 -19.1442416  17.9702584 -11.5987416  -4.0252416
  18.9032584 -11.4057416  -4.1192416  17.9402584 -12.3767416  -3.4692416
  10.7502584 -14.3747416   6.6637584  11.5502584 -14.8937416   6.7477584
  10.6042584 -14.3107416   5.7197584  27.0212584  -5.8167416  -6.2932416
  27.7802584  -5.8647416  -5.7122416  26.4872584  -6.5747416  -6.0542416
  35.6262584 -20.2487416  -1.6082416  35.5692584 -21.1727416  -1.3642416
  35.5722584 -19.7777416  -0.7762416  24.1562584  -4.9517416   3.2497584
  24.0002584  -4.0287416   3.4507584  25.0562584  -4.9777416   2.9257584
  34.1232584  -9.6577416 -17.5192416  34.1142584  -9.0827416 -16.7532416
  34.8272584 -10.2817416 -17.3442416  23.0272584 -18.2547416 -17.8872416
  23.5862584 -19.0307416 -17.9252416  22.6822584 -18.1637416 -18.7752416
   8.0682584 -18.1477416   4.5797584   7.7492584 -19.0247416   4.3687584
   8.8312584 -18.0267416   4.0137584  21.0862584  -1.8457416  -2.1302416
  21.0132584  -1.0407416  -2.6432416  21.8982584  -2.2517416  -2.4352416
  17.7122584 -14.3877416  -3.4532416  17.7372584 -15.2417416  -3.0212416
  17.3342584 -14.5657416  -4.3142416  23.1042584   6.0792584   1.5497584
  22.6542584   5.3812584   1.0737584  22.4912584   6.3332584   2.2387584
  22.7512584 -17.3767416   6.7347584  22.0562584 -16.7187416   6.7457584
  22.9842584 -17.4647416   5.8107584  24.8302584   8.5082584   3.2707584
  24.6212584   7.8082584   2.6527584  24.5012584   8.1912584   4.1117584
  16.5712584 -13.4817416   8.8767584  15.9952584 -13.3887416   8.1177584
  17.3802584 -13.0397416   8.6197584  15.1402584 -14.4687416   0.3557584
  15.1172584 -15.4247416   0.3287584  15.9802584 -14.2597416   0.7657584
  24.0922584   8.3782584 -13.7022416  23.9432584   7.6432584 -13.1062416
  23.8092584   8.0542584 -14.5572416  17.0232584   5.6632584 -13.9792416
  16.1262584   5.8812584 -14.2332416  17.5612584   5.9772584 -14.7062416
  25.6222584   7.8302584   8.9487584  25.1362584   7.0122584   8.8457584
  25.9232584   7.8182584   9.8577584   8.3152584 -15.5117416  -9.7392416
   7.8422584 -15.2447416 -10.5272416   9.1142584 -14.9847416  -9.7482416
  18.2802584   4.1412584 -12.0552416  18.0872584   4.6232584 -11.2522416
  17.9532584   4.7042584 -12.7572416   9.8682584  -2.7827416  -8.4042416
  10.3772584  -2.2357416  -7.8062416  10.2482584  -2.6127416  -9.2662416
  21.1602584  -6.0337416 -13.5892416  21.3112584  -6.9717416 -13.7032416
  20.5762584  -5.7957416 -14.3092416   9.3612584 -16.8887416  -7.2902416
   8.8852584 -16.5477416  -8.0472416   9.0372584 -16.3747416  -6.5512416
  16.9152584   6.5042584 -10.7642416  16.6152584   6.4962584 -11.6722416
  16.3402584   7.1322584 -10.3272416  35.2462584   4.3242584  -7.1752416
  35.4422584   5.1652584  -6.7622416  34.2922584   4.3122584  -7.2552416
  21.0532584 -14.8267416 -16.9102416  20.2612584 -14.3637416 -17.1862416
  20.7442584 -15.4717416 -16.2742416  17.6992584  -1.6987416 -13.2702416
  17.0492584  -2.0517416 -13.8772416  17.1882584  -1.1877416 -12.6422416
  20.2842584 -16.4397416 -14.7162416  20.8762584 -16.4487416 -13.9642416
  19.5912584 -17.0577416 -14.4832416   7.2312584  -0.0877416 -14.6812416
   8.1242584  -0.4107416 -14.7972416   6.6832584  -0.7287416 -15.1352416
  22.9542584   4.3162584 -14.6342416  22.8342584   3.5342584 -15.1742416
  22.1132584   4.4332584 -14.1912416  21.4112584  -1.2367416  -6.1892416
  21.6542584  -0.3497416  -6.4552416  22.2382584  -1.6467416  -5.9352416
  24.8012584  -0.0937416   2.0697584  24.3062584   0.6332584   2.4477584
  24.3982584  -0.8777416   2.4427584  12.9912584  -0.1687416 -12.6152416
  13.6472584   0.2142584 -12.0332416  12.1752584  -0.1307416 -12.1162416
  37.2022584   0.3762584  10.4757584  36.5072584   0.4542584  11.1297584
  37.1372584  -0.5247416  10.1617584  24.6782584   6.1062584 -11.6402416
  23.8322584   5.7232584 -11.4102416  25.0652584   5.4832584 -12.2552416
   9.5032584  -2.7787416 -13.8562416   8.8562584  -2.9397416 -13.1682416
  10.3482584  -2.9137416 -13.4272416  21.4992584   7.2162584 -12.0082416
  21.9492584   6.5812584 -11.4522416  21.1602584   6.6982584 -12.7382416
  31.5122584   3.1502584  -5.2742416  32.0902584   2.4172584  -5.4822416
  31.7422584   3.8262584  -5.9122416  13.6892584  -2.6617416 -17.0002416
  13.0972584  -2.0467416 -17.4332416  13.1902584  -3.4767416 -16.9452416
  23.6302584  -2.4987416   1.8627584  23.6972584  -3.2097416   1.2257584
  22.8872584  -1.9757416   1.5617584  14.4582584   1.5232584 -15.9882416
  14.7662584   2.2862584 -16.4762416  14.8392584   1.6262584 -15.1162416
  22.6382584   3.5352584  -5.3662416  23.4392584   3.6452584  -5.8782416
  22.2742584   2.7022584  -5.6662416  16.3602584 -16.1277416 -13.6322416
  16.0442584 -15.8947416 -14.5052416  16.6122584 -17.0477416 -13.7052416
  10.4402584  -6.0817416 -16.1702416  10.8292584  -5.4237416 -16.7462416
  10.9932584  -6.0737416 -15.3892416  11.3722584  -3.7847416 -10.4512416
  11.4242584  -3.4037416 -11.3272416  10.7852584  -4.5337416 -10.5492416
  18.4642584   7.8582584 -18.6262416  18.3372584   7.5352584 -19.5182416
  17.9192584   8.6442584 -18.5762416  13.8982584   3.3012584 -12.3562416
  14.5072584   2.8182584 -12.9142416  13.2452584   3.6532584 -12.9612416
   7.9742584  -3.7877416 -16.3102416   8.5682584  -3.7327416 -15.5612416
   8.4992584  -3.4967416 -17.0552416  17.1622584   3.9392584  -7.8652416
  17.2542584   4.6382584  -7.2172416  16.7242584   4.3572584  -8.6072416
  20.0492584 -19.5137416  -9.7722416  20.8272584 -20.0097416  -9.5162416
  19.8322584 -18.9917416  -9.0002416  18.0992584   0.7062584 -17.4352416
  18.0642584  -0.1777416 -17.8012416  17.6272584   1.2472584 -18.0682416
   7.8082584  -6.8227416 -16.9472416   7.1792584  -6.1117416 -16.8282416
   8.6592584  -6.4227416 -16.7702416  23.0462584   2.3172584 -11.4412416
  23.1072584   2.2072584 -12.3902416  23.9502584   2.4442584 -11.1552416
  11.5582584   0.9962584  -8.4752416  11.0192584   1.4462584  -7.8242416
  12.2492584   1.6232584  -8.6892416  18.8232584   1.6932584  -8.1552416
  19.1072584   1.6872584  -9.0692416  18.1432584   2.3662584  -8.1192416
  27.2792584 -18.5337416 -17.9622416  27.6262584 -19.2177416 -18.5352416
  26.4182584 -18.8577416 -17.6972416  35.3702584 -19.1437416   0.7707584
  34.5682584 -19.3567416   1.2487584  35.6222584 -18.2797416   1.0957584
  26.4142584   7.3362584 -10.0732416  25.8752584   7.7242584  -9.3842416
  25.7912584   7.0962584 -10.7592416   8.1852584 -21.5707416   6.3567584
   8.9702584 -21.4997416   5.8137584   8.4352584 -21.1767416   7.1927584
  13.9322584   2.6122584  -9.3952416  14.0322584   3.5202584  -9.1102416
  14.0622584   2.6422584 -10.3432416  17.6262584 -20.1217416  -3.6582416
  17.7922584 -20.0937416  -2.7152416  17.9012584 -19.2617416  -3.9752416
  33.5312584 -13.0447416  -4.6732416  33.1252584 -12.1777416  -4.6532416
  32.7932584 -13.6547416  -4.6802416  10.2992584   0.3802584 -11.2002416
  10.6122584   1.1372584 -10.7042416   9.3452584   0.4572584 -11.1792416
  22.6302584   1.6882584   0.6287584  23.1992584   1.5462584  -0.1272416
  22.1942584   0.8472584   0.7627584  14.2552584  -0.1157416 -10.1032416
  14.4562584   0.6462584  -9.5592416  13.7422584  -0.6887416  -9.5332416
  19.2592584   7.3212584  -9.6762416  18.4212584   6.9732584  -9.9822416
  19.7142584   7.5872584 -10.4752416  18.0592584  -3.0937416 -16.6162416
  17.8652584  -2.1617416 -16.5112416  18.7552584  -3.2667416 -15.9812416
  20.8372584 -21.1227416 -17.5332416  20.0562584 -21.3457416 -18.0392416
  20.8422584 -20.1657416 -17.5072416  10.3672584 -20.9827416 -14.8062416
  11.3222584 -20.9157416 -14.8122416  10.0712584 -20.1577416 -14.4222416
  16.6142584  -0.1107416 -11.4062416  16.0102584  -0.0837416 -10.6642416
  17.4042584   0.3272584 -11.0882416  36.0482584   2.3472584  -8.9182416
  35.3262584   1.7242584  -9.0082416  35.7392584   2.9812584  -8.2712416
  32.6572584   3.6052584 -10.7972416  31.7702584   3.8532584 -11.0562416
  33.0942584   3.3842584 -11.6202416  31.6692584  -0.7377416  -0.3562416
  32.5132584  -0.4737416  -0.7232416  31.8952584  -1.3297416   0.3617584
  20.1442584 -20.2607416  -6.8452416  20.7672584 -20.9607416  -6.6482416
  19.3002584 -20.6017416  -6.5502416  37.0362584   5.3302584 -10.4312416
  36.4302584   4.6322584 -10.6842416  37.6252584   4.9182584  -9.7992416
  20.4672584   4.4552584 -13.8162416  20.2712584   4.2892584 -12.8942416
  19.7062584   4.1182584 -14.2882416  21.1612584   1.6302584  -6.6292416
  20.2542584   1.5522584  -6.9272416  21.6682584   1.7462584  -7.4322416
  36.0122584   7.3972584   0.1677584  36.5432584   7.2322584   0.9467584
  35.1102584   7.2732584   0.4617584  14.3932584 -19.3807416   0.4167584
  14.9452584 -20.1467416   0.2597584  13.6422584 -19.7217416   0.9037584
  23.8592584  -9.2827416 -18.1832416  23.3372584  -8.5277416 -18.4562416
  23.4252584  -9.6007416 -17.3912416  21.6942584  -8.7137416 -13.5082416
  21.5662584  -8.8917416 -12.5762416  20.8112584  -8.7247416 -13.8782416
  18.0892584  -1.8157416  -9.4432416  17.2972584  -1.7587416  -8.9092416
  18.8032584  -1.6327416  -8.8322416  26.2192584  -6.8677416 -13.7742416
  26.3722584  -6.0247416 -13.3482416  26.0152584  -7.4657416 -13.0552416
  34.5462584 -21.2557416  -6.5472416  34.7032584 -21.8927416  -5.8502416
  35.1302584 -20.5257416  -6.3412416  19.3062584  -3.2167416 -11.6432416
  18.9382584  -2.9887416 -10.7892416  18.7582584  -2.7477416 -12.2732416
  31.8562584  -1.9907416  -6.8952416  32.0982584  -2.6997416  -6.3002416
  31.3842584  -2.4247416  -7.6062416  32.4132584  -6.6997416 -18.0272416
  32.5112584  -7.4797416 -18.5742416  31.6302584  -6.2647416 -18.3682416
  26.0612584   6.0442584 -16.0312416  26.9202584   5.7622584 -15.7182416
  25.4462584   5.7112584 -15.3782416  15.5512584 -17.3877416 -17.5202416
  15.6422584 -16.7447416 -16.8172416  14.7302584 -17.8417416 -17.3262416
  18.3952584   7.1972584 -15.9112416  18.4052584   8.0282584 -15.4352416
  18.7982584   7.4002584 -16.7562416  17.4042584   6.8682584  -7.4182416
  18.2012584   6.7302584  -7.9302416  17.7162584   7.0382584  -6.5292416
  24.5812584   0.7982584   8.0457584  24.8322584   1.3072584   8.8167584
  25.3142584   0.9052584   7.4387584   8.8742584   6.8842584 -11.7982416
   9.5432584   6.3752584 -12.2542416   8.0892584   6.3382584 -11.8362416
  33.1172584   1.1952584  -6.1762416  32.9212584   1.1782584  -7.1132416
  33.2752584   0.2802584  -5.9462416  26.5032584   5.1112584  -5.3482416
  26.8042584   5.3092584  -4.4612416  26.5552584   4.1572584  -5.4122416
  10.5472584   3.1432584 -10.3142416  10.9492584   3.9792584 -10.0792416
   9.7112584   3.3832584 -10.7152416   8.6062584   5.1892584 -18.9842416
   9.3822584   5.5022584 -19.4492416   8.4282584   4.3302584 -19.3662416
  36.8022584   6.3022584  -4.0572416  37.2982584   5.5682584  -4.4212416
  37.4582584   6.9812584  -3.8992416  29.5592584  -6.9357416 -10.6922416
  28.9332584  -6.8997416  -9.9692416  30.3312584  -6.4737416 -10.3642416
  20.4732584   0.4862584  -3.7682416  19.5212584   0.3932584  -3.7432416
  20.7132584   0.2602584  -4.6662416  20.1492584  -0.1997416 -13.0162416
  20.6792584   0.2402584 -13.6812416  19.5962584  -0.8047416 -13.5112416
  10.6342584 -15.3847416 -17.4752416  11.1962584 -14.7177416 -17.8702416
  11.1692584 -15.7667416 -16.7792416  24.2052584   2.0322584 -19.2812416
  24.6602584   2.8022584 -18.9402416  23.3342584   2.3522584 -19.5172416
  25.4522584  -8.9677416 -11.9442416  24.9002584  -9.5957416 -12.4102416
  24.8522584  -8.5157416 -11.3512416   7.3302584 -18.0067416 -13.5432416
   7.1852584 -18.9207416 -13.7852416   7.2662584 -17.9987416 -12.5882416
  27.0972584 -21.2747416   6.9347584  26.5002584 -21.5127416   7.6437584
  27.4892584 -20.4487416   7.2177584  33.5692584   1.5822584   2.7667584
  33.1002584   2.2752584   2.3027584  34.4352584   1.5642584   2.3597584
  15.8892584 -16.6297416   6.8387584  15.7592584 -16.7307416   7.7817584
  15.1602584 -16.0787416   6.5527584  12.2482584 -20.5657416   8.2367584
  12.4302584 -19.7567416   7.7597584  12.1172584 -21.2227416   7.5527584
  11.9412584   4.8642584 -17.2992416  12.0242584   4.1432584 -16.6752416
  11.1212584   5.2952584 -17.0612416  30.5652584   7.7882584  -2.4092416
  30.5012584   6.8332584  -2.3942416  30.1882584   8.0402584  -3.2512416
  23.4492584   1.8832584   3.0777584  23.0982584   1.9872584   2.1937584
  22.6892584   1.9902584   3.6517584  20.7312584  -4.5687416   2.9657584
  21.2942584  -5.1787416   3.4427584  20.6222584  -4.9677416   2.1027584
  20.6762584  -2.0857416   4.1437584  20.7952584  -2.8947416   3.6457584
  21.3892584  -2.0887416   4.7817584  12.7112584  -0.7017416 -18.7462416
  11.8062584  -0.6627416 -19.0562416  13.0622584   0.1712584 -18.9202416
  30.5342584   3.8022584   6.8887584  31.0672584   4.2192584   6.2107584
  29.8372584   4.4332584   7.0667584  28.2932584   5.6312584   6.8977584
  27.9452584   5.7732584   6.0177584  28.5432584   6.5042584   7.2007584
  21.8912584   4.2182584   0.2627584  22.0212584   4.2282584  -0.6862416
  21.8302584   3.2902584   0.4867584  15.6532584 -19.0117416   5.5487584
  15.2852584 -19.7537416   6.0277584  15.6622584 -18.2967416   6.1847584
  31.7142584  -4.5647416   3.0087584  32.3142584  -5.2587416   3.2817584
  30.8862584  -4.7787416   3.4377584  21.8872584   6.0352584  10.0737584
  20.9892584   5.7952584  10.3007584  21.7962584   6.6272584   9.3267584
  24.4292584   4.2742584   4.8497584  25.1852584   4.1912584   4.2687584
  23.8372584   3.5742584   4.5747584  23.5762584   3.4622584  -2.8572416
  23.1742584   3.4132584  -3.7242416  23.8872584   4.3642584  -2.7872416
  15.9262584   3.7202584 -16.5962416  16.6462584   3.7902584 -17.2222416
  15.4862584   4.5692584 -16.6412416  33.9642584 -17.9007416   3.3467584
  33.9662584 -18.7287416   3.8267584  34.5482584 -17.3317416   3.8467584
  17.1122584 -18.0117416   2.4437584  16.3082584 -18.1047416   2.9547584
  17.7022584 -18.6757416   2.7997584  15.6772584  -8.9087416  -6.6052416
  15.9512584  -8.3547416  -7.3352416  16.4422584  -9.4527416  -6.4162416
  12.0622584   0.4402584 -14.8872416  12.6772584   0.7712584 -15.5422416
  12.5812584   0.3692584 -14.0852416   8.3772584   2.3022584 -17.0982416
   8.8972584   1.8062584 -17.7302416   8.8152584   2.1562584 -16.2602416
  18.0382584 -19.3747416   8.7487584  17.1582584 -19.5737416   8.4287584
  17.9142584 -19.1557416   9.6717584  28.8392584   4.2922584  -0.1322416
  29.0772584   3.9232584  -0.9822416  28.3312584   3.6012584   0.2947584
  33.6942584   1.8442584 -15.4902416  34.4612584   1.7302584 -16.0512416
  33.3462584   2.7022584 -15.7312416  23.0722584 -19.4617416   2.3187584
  22.7082584 -19.6097416   3.1917584  23.9762584 -19.7697416   2.3807584
  26.5342584  -2.1667416   0.9567584  26.2222584  -2.4537416   0.0987584
  25.7372584  -1.9777416   1.4517584  21.7282584 -18.2087416   9.3567584
  21.3652584 -19.0777416   9.1807584  22.2472584 -18.0047416   8.5787584
  24.2952584  -5.8407416   6.5267584  24.9682584  -5.1607416   6.4847584
  23.4872584  -5.3667416   6.7217584  20.2582584 -20.0117416   0.6197584
  21.1582584 -19.9617416   0.9427584  20.1332584 -20.9347416   0.3997584
  15.4462584 -20.2987416   8.7627584  14.7892584 -20.1577416   9.4447584
  15.3822584 -21.2327416   8.5587584  25.6802584 -13.5377416 -17.7732416
  26.3932584 -13.1837416 -17.2422416  25.2442584 -12.7657416 -18.1352416
  22.3252584  -4.3047416   7.0157584  22.4342584  -3.8737416   7.8637584
  21.7382584  -5.0387416   7.1937584  21.6462584  -0.6557416 -15.6022416
  21.5612584  -0.7987416 -16.5452416  22.2162584  -1.3637416 -15.3032416
  32.2872584 -18.5527416   6.0237584  31.9532584 -18.8717416   5.1857584
  32.8302584 -19.2687416   6.3537584  22.9912584   7.1572584 -16.1272416
  22.8552584   6.2312584 -16.3272416  22.3232584   7.6142584 -16.6382416
  16.2792584 -20.3897416 -18.2052416  15.5952584 -21.0597416 -18.2292416
  15.8662584 -19.6117416 -18.5782416  15.2262584   7.6022584  -8.8432416
  15.8052584   7.2802584  -8.1532416  14.7042584   8.2832584  -8.4192416
  12.6952584 -21.3897416   1.5167584  12.3452584 -20.7627416   2.1497584
  12.5572584 -22.2447416   1.9257584  21.8642584 -13.7697416 -14.0252416
  22.5562584 -13.8907416 -14.6752416  21.5932584 -14.6587416 -13.7962416
  19.4362584 -15.2197416 -11.5032416  20.2572584 -15.6467416 -11.7462416
  18.7702584 -15.6637416 -12.0282416  17.9672584 -15.3547416  10.5857584
  18.3142584 -14.6767416  11.1647584  17.3472584 -14.8937416  10.0197584
  32.1542584  -6.4487416 -12.9652416  31.2652584  -6.2217416 -13.2392416
  32.6852584  -5.6957416 -13.2232416  26.5702584 -14.0197416  -6.5882416
  26.7572584 -13.5867416  -7.4212416  26.1732584 -13.3377416  -6.0462416
  37.1322584  -8.6327416   0.7767584  36.4342584  -8.0167416   0.5527584
  36.7422584  -9.4957416   0.6377584  30.6302584 -13.4657416  -4.7802416
  30.2562584 -13.0977416  -5.5812416  30.2642584 -14.3487416  -4.7282416
  34.6722584 -17.5717416  -8.7272416  34.5302584 -17.2717416  -9.6242416
  34.9072584 -18.4957416  -8.8162416  31.0352584 -13.6547416  -8.2472416
  30.4582584 -13.0807416  -8.7502416  31.6962584 -13.9417416  -8.8772416
  31.3332584 -20.2157416  -8.4382416  30.4172584 -20.0967416  -8.1882416
  31.3032584 -20.8237416  -9.1762416  30.0182584   0.2802584  10.5217584
  30.3032584  -0.4047416  11.1277584  30.5912584   0.1802584   9.7617584
   7.2542584 -14.8377416  -1.7972416   7.9722584 -14.2337416  -1.6082416
   6.9112584 -14.5447416  -2.6412416  26.5812584  -9.5417416 -17.6722416
  25.6382584  -9.4467416 -17.8072416  26.7542584 -10.4687416 -17.8392416
  25.8162584 -16.6757416  -6.8722416  26.3862584 -17.0827416  -7.5252416
  26.1902584 -15.8047416  -6.7362416  35.4142584   1.7572584  -4.5122416
  34.7572584   1.8872584  -5.1952416  36.2292584   1.5992584  -4.9902416
  34.9542584 -18.7807416 -15.4312416  35.4092584 -19.5477416 -15.7792416
  34.2342584 -18.6307416 -16.0432416  23.0632584 -14.5487416 -18.7202416
  22.3962584 -14.7137416 -18.0532416  23.6502584 -13.9087416 -18.3192416
  26.7272584  -4.3257416   7.2657584  27.4852584  -4.6927416   6.8107584
  26.7312584  -4.7537416   8.1217584  33.1332584 -16.1297416  -4.6122416
  33.3522584 -15.7267416  -5.4522416  32.9562584 -17.0457416  -4.8242416
  32.6442584 -14.5957416 -13.8812416  32.0792584 -15.3587416 -14.0022416
  32.9572584 -14.3867416 -14.7622416  21.9912584 -10.3067416   1.1147584
  21.3142584  -9.8337416   0.6307584  22.5712584  -9.6207416   1.4477584
  25.6592584   2.2382584 -10.1922416  26.0312584   3.0502584 -10.5342416
  26.1082584   1.5452584 -10.6762416  23.9012584 -14.5597416 -15.4942416
  24.3902584 -14.0507416 -16.1412416  23.9782584 -15.4657416 -15.7942416
  12.8092584 -17.6497416  -1.4182416  13.3232584 -18.1507416  -0.7862416
  12.3032584 -18.3097416  -1.8932416  32.4902584 -15.9487416   0.3587584
  33.3652584 -16.2837416   0.1627584  32.1152584 -15.7417416  -0.4972416
  17.7012584 -14.4307416   1.5337584  18.5412584 -14.7727416   1.2257584
  17.8222584 -14.3107416   2.4757584  12.6242584 -12.6407416  -6.0342416
  11.7382584 -12.7217416  -5.6822416  12.6002584 -11.8427416  -6.5632416
  26.3142584 -10.2447416  -5.5442416  25.9242584 -10.1667416  -6.4152416
  25.9562584  -9.5057416  -5.0532416  30.6442584  -4.9517416  -1.4602416
  30.2032584  -4.3197416  -2.0282416  30.0362584  -5.0857416  -0.7332416
   8.4362584   3.8162584  -8.2912416   9.0772584   3.2332584  -8.6982416
   7.6342584   3.2962584  -8.2432416   7.7522584 -18.1287416 -17.2742416
   8.0972584 -17.6237416 -18.0102416   6.8132584 -18.1957416 -17.4482416
  32.6462584   1.4352584 -13.0332416  33.3572584   1.0262584 -12.5392416
  33.0192584   1.5992584 -13.8992416  27.0222584  -9.4037416 -14.5402416
  27.4812584  -9.2437416 -13.7162416  26.7482584  -8.5357416 -14.8352416
  25.2102584 -14.5587416   7.8387584  24.5192584 -15.0047416   8.3277584
  25.2932584 -15.0607416   7.0277584  32.7542584 -10.4337416  -3.9052416
  32.3122584 -10.9687416  -3.2462416  32.0522584  -9.9237416  -4.3102416
   8.8892584  -7.0027416 -13.7262416   8.2672584  -7.0527416 -14.4532416
   8.9552584  -7.9017416 -13.4052416  33.9362584 -17.9517416  -1.5182416
  33.6592584 -17.4827416  -2.3052416  33.2402584 -18.5887416  -1.3602416
  28.8192584  -2.0787416 -18.1772416  29.5972584  -2.4827416 -17.7942416
  28.5792584  -1.3867416 -17.5612416  27.0892584 -13.7827416   9.8537584
  26.6492584 -14.0477416   9.0457584  26.4672584 -13.9967416  10.5477584
  36.4112584   2.2002584 -13.5422416  36.5592584   2.7532584 -14.3092416
  36.6242584   1.3152584 -13.8392416  28.4602584 -20.8097416 -10.7972416
  28.5932584 -20.4657416  -9.9142416  27.7852584 -21.4807416 -10.6932416
  31.3772584 -17.1357416   9.8947584  31.1132584 -16.5437416   9.1907584
  30.6282584 -17.1477416  10.4917584  34.2142584 -20.9507416   3.9757584
  33.3052584 -21.1927416   3.7967584  34.6522584 -21.7817416   4.1597584
  34.2482584  -1.2147416  -5.8472416  33.3992584  -1.4997416  -6.1842416
  34.6262584  -2.0007416  -5.4532416  30.5562584 -16.5207416  -7.5652416
  30.9582584 -15.6847416  -7.8032416  31.2972584 -17.1007416  -7.3872416
  32.1692584 -20.5367416   0.7327584  31.8662584 -20.1687416  -0.0972416
  31.6692584 -20.0677416   1.4007584  29.7252584   2.3472584  -3.1112416
  30.5132584   2.2602584  -2.5752416  30.0522584   2.5012584  -3.9972416
  33.5152584 -14.0727416   4.5617584  33.4952584 -14.8127416   5.1677584
  34.2982584 -13.5807416   4.8097584   7.3672584  -9.7327416  -7.7742416
   7.6342584  -9.9607416  -6.8842416   8.0932584  -9.2127416  -8.1172416
  32.9302584  -2.4197416 -11.2002416  32.0432584  -2.4377416 -10.8412416
  33.3802584  -3.1417416 -10.7632416  23.8472584 -11.9967416 -12.2802416
  23.4792584 -12.4637416 -13.0312416  24.7512584 -12.3047416 -12.2252416
  25.5362584   4.1812584 -13.3372416  26.0592584   3.4342584 -13.6292416
  24.7902584   4.2002584 -13.9362416  11.9862584   4.2472584 -14.1322416
  11.5462584   5.0712584 -13.9202416  11.2732584   3.6292584 -14.2922416
  30.4352584   1.6002584  -8.8882416  30.1642584   2.1592584  -9.6172416
  29.7442584   0.9412584  -8.8232416  32.9312584   4.9482584  -3.3802416
  32.7332584   4.0532584  -3.6542416  32.0792584   5.3272584  -3.1642416
   7.2242584 -15.2307416 -12.0912416   6.6462584 -15.6717416 -12.7152416
   7.9022584 -14.8287416 -12.6352416  12.6042584 -19.9267416  -5.2792416
  13.5462584 -20.0197416  -5.4262416  12.3132584 -19.3207416  -5.9602416
  28.1722584 -10.2147416   8.7237584  28.6782584 -10.8267416   9.2577584
  28.6652584 -10.1457416   7.9057584  19.2342584 -17.7767416 -19.0712416
  18.6422584 -17.0537416 -19.2782416  19.9092584 -17.7357416 -19.7492416
  31.6532584 -19.4787416  -1.8142416  31.8912584 -19.3817416  -2.7362416
  31.1132584 -20.2687416  -1.7872416  15.7432584 -17.1667416   0.0477584
  16.3502584 -17.4697416   0.7237584  15.0082584 -17.7787416   0.0947584
  34.8672584 -14.3357416   9.1127584  35.3862584 -13.5617416   8.8927584
  34.7072584 -14.7657416   8.2727584  28.4272584 -19.8357416  -8.3302416
  28.2502584 -19.8177416  -7.3902416  28.2912584 -18.9327416  -8.6172416
  29.3102584 -15.3417416  -2.9192416  28.7692584 -14.7477416  -2.3992416
  28.8742584 -15.3817416  -3.7702416  24.2392584 -11.7887416  10.7147584
  24.1262584 -10.8517416  10.8697584  24.5532584 -11.8467416   9.8117584
  35.1882584 -20.0217416 -10.0842416  34.8622584 -20.7917416  -9.6192416
  34.7792584 -20.0717416 -10.9482416  28.7652584  -5.4777416   0.0807584
  28.4522584  -5.0107416   0.8547584  29.2212584  -6.2437416   0.4297584
  31.7822584  -8.7617416  -1.3212416  32.5242584  -9.2737416  -1.6442416
  32.1822584  -8.0467416  -0.8252416   9.8892584 -17.4757416   2.4907584
   9.4992584 -17.9787416   1.7757584  10.1932584 -16.6677416   2.0757584
  37.0602584   0.9192584   4.3387584  37.7132584   0.4452584   3.8247584
  36.3162584   1.0232584   3.7447584  30.1652584   8.2052584 -12.7002416
  29.5112584   8.5422584 -12.0882416  30.8372584   7.8132584 -12.1412416
  37.2252584 -12.2097416 -12.0332416  36.2892584 -12.3117416 -11.8612416
  37.3652584 -12.6547416 -12.8682416  19.3332584 -14.1097416  -7.1582416
  20.2732584 -14.1347416  -7.3372416  19.1602584 -14.9157416  -6.6722416
  29.4502584  -9.2037416  -7.8972416  28.9452584  -8.4117416  -8.0812416
  29.4012584  -9.7127416  -8.7062416  35.1872584 -12.6307416  -0.6672416
  36.0782584 -12.7787416  -0.3482416  34.6352584 -13.1577416  -0.0892416
  33.1282584  -0.4667416   9.5557584  32.6232584  -0.5477416   8.7477584
  33.6302584   0.3412584   9.4457584   9.8302584 -12.6387416 -10.7462416
  10.2532584 -12.4367416  -9.9112416   8.9642584 -12.2377416 -10.6792416
   9.1602584 -13.3137416  -0.9532416  10.0112584 -12.9097416  -0.7852416
   8.6022584 -13.0037416  -0.2402416  34.6972584 -15.6077416  -6.7042416
  34.8282584 -16.4327416  -7.1722416  34.6262584 -14.9487416  -7.3952416
  13.2592584 -18.0607416 -16.0452416  12.9062584 -17.1967416 -15.8312416
  12.5692584 -18.4797416 -16.5602416  27.3562584 -18.3167416 -12.2062416
  27.9822584 -18.8827416 -11.7532416  26.6222584 -18.2357416 -11.5982416
  24.0412584   8.0962584  -8.7602416  23.5142584   7.5102584  -8.2172416
  23.4722584   8.3192584  -9.4962416  13.0802584 -11.2847416 -14.0162416
  12.8292584 -10.7287416 -13.2782416  13.0662584 -10.6997416 -14.7732416
  29.2442584   6.2822584   1.9977584  29.4852584   5.7472584   1.2417584
  29.6012584   7.1492584   1.8017584  33.1982584   6.8852584   1.1967584
  32.5812584   6.3032584   0.7517584  32.8722584   7.7662584   1.0117584
  23.1452584  -5.6207416 -18.7052416  22.2632584  -5.9587416 -18.5522416
  23.5842584  -6.3127416 -19.2002416  29.3582584 -13.7977416 -10.7452416
  30.2722584 -14.0817416 -10.7772416  29.3212584 -13.0417416 -11.3312416
  31.5802584 -10.6677416 -12.1422416  31.8882584 -10.2207416 -11.3542416
  32.2922584 -10.5597416 -12.7732416  27.6602584   6.0322584  -2.8782416
  27.2082584   6.8422584  -2.6402416  27.1062584   5.3352584  -2.5282416
  24.3732584   2.9202584  -7.7862416  24.3272584   2.5262584  -8.6572416
  25.0702584   3.5732584  -7.8542416  34.3042584 -13.6427416  -8.6212416
  33.8632584 -12.9057416  -8.1982416  34.4792584 -13.3377416  -9.5122416
  31.6242584 -13.3327416 -19.2142416  32.1932584 -12.7327416 -19.6962416
  32.1432584 -13.5967416 -18.4542416  34.8582584  -3.7317416   1.0537584
  34.2032584  -3.6447416   1.7467584  34.9862584  -2.8397416   0.7307584
  27.6392584 -15.8407416 -13.4292416  27.8832584 -16.6267416 -12.9412416
  28.4742584 -15.4657416 -13.7122416  30.2342584   4.1332584 -11.6322416
  29.4102584   4.5492584 -11.8852416  30.2522584   3.3142584 -12.1272416
  22.2642584 -18.4557416  -7.4072416  23.1242584 -18.8637416  -7.5102416
  21.7702584 -19.0697416  -6.8632416   8.4482584 -14.7547416  -5.2172416
   7.5602584 -14.8277416  -4.8702416   8.7412584 -13.8847416  -4.9472416
   8.3972584  -3.2337416 -11.2212416   8.9802584  -3.1057416 -10.4722416
   7.6072584  -3.6237416 -10.8472416  32.5222584  -8.0627416  -7.7992416
  32.2262584  -7.3347416  -7.2532416  33.3122584  -8.3827416  -7.3632416
  34.3052584   6.2902584  -5.0802416  33.8232584   5.7832584  -4.4272416
  35.2032584   6.3152584  -4.7502416  31.9812584 -19.4507416 -13.4812416
  31.3772584 -20.1937416 -13.4682416  32.8512584 -19.8497416 -13.4762416
  26.6112584  -6.3977416  -3.2872416  27.4262584  -6.8927416  -3.3742416
  26.8932584  -5.5117416  -3.0592416  34.9592584  -7.9667416 -15.5332416
  34.9322584  -7.7237416 -14.6082416  35.0942584  -7.1387416 -15.9952416
  30.0402584  -7.1817416   9.9057584  30.2662584  -6.2717416  10.1007584
  29.5332584  -7.1337416   9.0957584  31.6982584 -17.7797416 -11.0432416
  31.8592584 -18.4397416 -11.7172416  32.5622584 -17.6027416 -10.6692416
  35.0852584  -5.6057416 -17.5662416  34.2562584  -6.0707416 -17.6852416
  35.4632584  -5.5617416 -18.4442416  28.6142584 -15.6067416  -5.6542416
  27.9382584 -15.1117416  -6.1172416  29.2322584 -15.8657416  -6.3382416
  11.5992584 -10.6957416 -18.3322416  10.8932584 -10.1227416 -18.0332416
  12.3172584 -10.5317416 -17.7202416  25.1422584  -4.3907416  -8.0842416
  25.0992584  -5.3267416  -8.2812416  26.0112584  -4.2677416  -7.7002416
  32.6742584  -9.6017416  -9.9742416  32.3132584  -9.0537416  -9.2772416
  33.4732584  -9.9717416  -9.5992416  34.4312584 -16.5957416 -11.3192416
  34.5842584 -15.6747416 -11.1062416  34.7542584 -16.6907416 -12.2152416
  31.3322584 -12.5947416   4.9957584  30.6562584 -13.1357416   4.5887584
  32.1142584 -13.1467416   4.9957584  23.9792584  -3.1447416 -17.6992416
  23.9152584  -4.0357416 -18.0432416  24.6062584  -2.7097416 -18.2762416
  30.0422584  -7.9937416   0.5797584  30.7542584  -8.2947416   0.0147584
  29.3002584  -8.5527416   0.3487584  30.4522584 -21.0967416  -5.1552416
  30.8972584 -21.8037416  -5.6222416  31.1422584 -20.4607416  -4.9682416
  15.7072584  -2.6407416 -14.6862416  15.6382584  -3.5707416 -14.4702416
  15.0672584  -2.5087416 -15.3852416   8.1082584  -9.3677416 -15.8672416
   7.9602584  -8.7057416 -16.5422416   7.4382584 -10.0317416 -16.0312416
  23.4552584 -15.9027416  -7.5752416  24.3492584 -16.2127416  -7.4352416
  22.9202584 -16.6957416  -7.5542416  32.4542584 -19.0437416  -4.2302416
  33.3532584 -19.3677416  -4.1662416  32.3062584 -18.9307416  -5.1692416
  33.2302584 -11.7957416  -6.9592416  33.5462584 -12.4637416  -6.3502416
  32.2932584 -11.7277416  -6.7752416  30.2142584 -13.1317416 -15.8752416
  30.4082584 -12.1957416 -15.9302416  30.6312584 -13.4157416 -15.0612416
  25.5902584 -19.7987416 -14.8732416  25.3652584 -20.5337416 -14.3032416
  26.5462584 -19.7587416 -14.8462416  35.1822584 -12.3527416   6.0387584
  35.7732584 -12.3017416   6.7897584  34.6692584 -11.5457416   6.0817584
  36.6012584  -1.1007416  -6.8972416  35.7092584  -1.0927416  -6.5502416
  36.4892584  -1.1147416  -7.8472416  27.1032584 -13.1987416  -9.3142416
  27.1032584 -12.3147416  -9.6812416  27.8072584 -13.6507416  -9.7772416
  29.8852584 -10.1957416   6.7717584  29.9572584 -11.0097416   6.2727584
  30.7772584 -10.0177416   7.0707584  29.5362584  -3.7427416  -5.6522416
  29.6722584  -3.0087416  -5.0542416  28.6892584  -3.5657416  -6.0622416
  25.7472584  -2.6397416   5.3017584  25.9872584  -3.2657416   5.9857584
  26.5462584  -2.1377416   5.1447584   8.1722584  -9.7817416 -12.9142416
   7.9992584  -9.9967416 -13.8312416   8.0312584 -10.6037416 -12.4442416
  25.7382584 -15.3307416 -10.4342416  25.8802584 -15.2607416 -11.3782416
  26.0522584 -14.4987416 -10.0812416  24.7762584 -19.4487416  -7.6812416
  24.7292584 -19.6407416  -6.7442416  24.6352584 -20.2937416  -8.1062416
  30.2812584 -15.5207416 -17.0942416  30.3112584 -14.6027416 -16.8252416
  29.7702584 -15.5177416 -17.9032416  26.6232584   7.4522584 -18.5112416
  27.5802584   7.4442584 -18.5172416  26.3832584   6.9322584 -17.7442416
  30.2862584 -16.9847416   7.2367584  30.9862584 -17.4127416   6.7447584
  29.6492584 -16.7247416   6.5717584  36.5962584  -0.2627416  -2.5772416
  36.3122584   0.5492584  -2.9972416  37.4852584  -0.0777416  -2.2752416
  37.1932584 -18.2537416 -10.6452416  36.4812584 -18.8787416 -10.5082416
  36.8172584 -17.4057416 -10.4112416  15.1162584 -20.6367416 -12.3192416
  15.5792584 -20.1617416 -11.6292416  14.8052584 -19.9537416 -12.9132416
  33.2562584 -15.3637416 -16.5072416  33.9692584 -15.0897416 -17.0842416
  32.6692584 -15.8647416 -17.0732416  32.6052584  -0.7507416 -17.8482416
  32.6932584  -0.5657416 -18.7832416  33.4172584  -1.2007416 -17.6152416
  35.5592584 -16.0987416  -0.0792416  35.9972584 -15.5727416  -0.7482416
  35.2532584 -16.8757416  -0.5472416  20.8992584 -20.7577416   9.4137584
  20.0022584 -20.8907416   9.7187584  21.4382584 -20.8737416  10.1967584
  28.1352584 -17.1817416  -1.6252416  27.7752584 -17.6597416  -2.3722416
  28.7172584 -16.5297416  -2.0162416  26.7452584  -8.1107416   9.9397584
  26.8142584  -8.6327416  10.7397584  27.1322584  -8.6617416   9.2597584
  36.5982584 -11.7887416 -18.1642416  36.9762584 -11.9487416 -19.0282416
  36.0812584 -12.5737416 -17.9792416  31.0072584  -4.7767416  10.3337584
  30.9702584  -4.1837416  11.0837584  31.8482584  -4.5867416   9.9177584
  28.6132584  -8.3587416   4.8737584  28.8142584  -9.2247416   5.2297584
  28.4722584  -8.5097416   3.9397584  31.5772584  -5.1147416   7.1397584
  31.6922584  -4.2287416   6.7977584  31.2312584  -4.9877416   8.0237584
  36.3692584 -11.1877416   3.1047584  35.4772584 -10.9777416   2.8277584
  36.2872584 -11.4037416   4.0337584  34.7092584  -9.9167416  -0.5532416
  34.7782584 -10.8697416  -0.6132416  34.7982584  -9.7277416   0.3807584
  35.3122584  -8.4897416   4.6037584  35.9552584  -8.8897416   5.1907584
  34.6462584  -8.1287416   5.1887584  31.3062584 -19.8307416   8.7347584
  31.9742584 -20.1357416   8.1207584  31.5992584 -18.9567416   8.9927584
  28.9572584  -8.2047416 -16.9962416  28.9672584  -7.8587416 -17.8882416
  28.1492584  -8.7157416 -16.9462416   7.8762584 -17.0847416   7.1997584
   8.0152584 -17.2307416   6.2647584   8.0702584 -16.1567416   7.3297584
  35.2242584   4.2042584 -19.1792416  34.8452584   4.8182584 -19.8092416
  35.9842584   4.6652584 -18.8242416  28.3872584 -16.5657416   5.0277584
  27.5432584 -16.3017416   5.3927584  28.4492584 -17.5017416   5.2177584
  33.7372584 -15.9867416   6.5587584  33.0142584 -16.5997416   6.4257584
  34.5162584 -16.4717416   6.2857584  35.9532584   6.6182584 -16.3322416
  36.0692584   5.7192584 -16.0242416  36.6712584   6.7562584 -16.9492416
   9.8422584 -14.4937416   3.9497584  10.1092584 -13.6817416   3.5177584
   9.2972584 -14.9417416   3.3017584  29.6262584   2.9052584 -18.5612416
  28.8502584   2.8332584 -18.0052416  29.6992584   2.0492584 -18.9832416
  34.2022584 -13.8117416   1.5297584  34.3572584 -13.9987416   2.4557584
  33.3682584 -14.2407416   1.3357584  26.7502584  -2.3067416 -14.5882416
  27.0212584  -3.0647416 -15.1052416  26.7652584  -1.5767416 -15.2072416
  34.1332584 -10.9947416 -13.8322416  34.4902584 -10.1297416 -13.6342416
  34.7362584 -11.3607416 -14.4802416  29.3802584 -14.2167416   3.8537584
  29.8262584 -14.3357416   3.0157584  29.1782584 -15.1057416   4.1467584
  30.2482584   5.2562584  -3.4242416  29.3112584   5.2542584  -3.2302416
  30.3712584   4.5162584  -4.0192416  33.2762584  -6.5897416   3.5317584
  34.0232584  -6.9967416   3.0927584  33.3612584  -6.8567416   4.4467584
   8.9072584 -16.8177416 -15.1532416   8.5862584 -17.2347416 -15.9532416
   8.2792584 -17.0767416 -14.4792416  33.9052584   7.3282584 -18.1562416
  34.7252584   6.9772584 -17.8092416  33.5252584   7.8172584 -17.4262416
  31.4492584   1.9772584  -1.0122416  31.4692584   1.1912584  -0.4652416
  32.3422584   2.0582584  -1.3482416  34.6022584   6.4782584   8.9777584
  34.0592584   7.0092584   9.5617584  35.2622584   7.0872584   8.6457584
  31.3692584  -3.0567416 -17.6142416  31.7272584  -2.1917416 -17.8152416
  32.0212584  -3.4587416 -17.0392416  32.4382584  -6.4297416  -0.1412416
  31.8742584  -6.2257416   0.6057584  32.2212584  -5.7647416  -0.7942416
  24.7822584 -15.6207416   2.4847584  25.1202584 -16.5147416   2.5347584
  25.4332584 -15.1457416   1.9677584  25.8262584 -17.7727416   8.3187584
  26.6392584 -18.2707416   8.2337584  25.7792584 -17.5457416   9.2477584
  36.4112584  -9.8557416   6.9007584  36.5792584 -10.4117416   7.6617584
  36.7692584  -9.0017416   7.1437584  27.2612584 -14.9637416   1.2967584
  27.6042584 -15.8257416   1.0617584  28.0402584 -14.4287416   1.4487584
  36.6072584 -18.3997416  -3.3082416  36.4302584 -19.1807416  -2.7832416
  36.1002584 -17.7067416  -2.8842416  33.3352584  -9.1677416   8.2467584
  32.6262584  -9.3327416   8.8677584  34.0962584  -8.9777416   8.7947584
  25.0732584 -13.9407416   4.7417584  24.9512584 -14.8897416   4.7117584
  24.2092584 -13.5947416   4.9677584  28.7572584  -5.8827416   6.0397584
  29.4352584  -6.0627416   6.6907584  28.5802584  -6.7327416   5.6357584
  37.0432584 -18.9717416   9.3277584  36.5052584 -18.6417416  10.0467584
  36.9132584 -18.3397416   8.6207584  31.1942584 -16.8587416 -14.3092416
  31.0782584 -17.0427416 -15.2412416  31.4412584 -17.7007416 -13.9272416
  35.8912584 -16.5847416   4.5927584  36.4222584 -15.9007416   5.0017584
  36.4642584 -17.3507416   4.5677584   9.7102584 -17.7747416   9.6137584
   9.5332584 -16.8357416   9.6567584   9.1982584 -18.0827416   8.8657584
  17.0832584  -9.7597416  -2.2012416  17.3942584 -10.3417416  -1.5082416
  17.3162584 -10.2097416  -3.0142416  27.3292584  -5.3457416   9.5977584
  27.1152584  -6.2607416   9.4187584  27.7702584  -5.3637416  10.4477584
  27.1962584 -12.3617416   4.0287584  27.9942584 -12.8897416   4.0757584
  26.4972584 -12.9607416   4.2927584  30.7992584  -8.8447416  -5.1872416
  30.5002584  -8.9377416  -6.0912416  31.0592584  -7.9267416  -5.1132416
  29.1202584  -3.1067416   8.0437584  28.8792584  -2.3477416   8.5747584
  28.3992584  -3.7247416   8.1657584  27.8532584  -0.9117416   9.1727584
  28.0002584  -0.6327416  10.0757584  27.7582584  -0.0957416   8.6807584
  30.2902584 -14.4717416   1.3517584  30.7652584 -13.7757416   0.8977584
  30.7762584 -15.2697416   1.1417584   7.3142584 -14.3917416   5.6557584
   8.1942584 -14.2577416   5.3017584   6.8712584 -13.5537416   5.5207584
  28.4762584 -17.3527416  -9.1432416  29.3642584 -17.1347416  -8.8602416
  28.1502584 -16.5487416  -9.5492416  12.4712584 -10.0097416 -11.8322416
  12.0382584 -10.6427416 -11.2582416  12.7682584  -9.3167416 -11.2432416
  13.2452584 -15.5267416  -6.3902416  13.9552584 -15.6397416  -7.0222416
  13.1732584 -14.5797416  -6.2762416  33.0712584  -7.3467416   6.0017584
  33.1132584  -7.9687416   6.7287584  32.5472584  -6.6207416   6.3387584
  34.1622584   4.5572584   2.7947584  35.0842584   4.6482584   3.0387584
  33.9992584   5.2862584   2.1967584   7.7022584 -11.7997416  -5.4822416
   7.0202584 -11.7847416  -4.8102416   7.4182584 -12.4767416  -6.0972416
  29.2002584  -7.6187416  -3.2622416  29.8412584  -8.1867416  -3.6902416
  29.6832584  -7.2147416  -2.5412416  28.5442584   2.0182584   7.7747584
  29.2452584   2.5722584   7.4307584  28.0132584   2.6072584   8.3097584
  31.3072584 -17.8497416   1.7427584  31.7812584 -17.0897416   1.4037584
  31.7352584 -18.0467416   2.5757584  20.9352584 -15.1127416  -3.7412416
  21.4382584 -14.7177416  -4.4532416  20.6212584 -14.3677416  -3.2282416
  35.3812584  -9.0487416   9.9687584  36.2312584  -8.6097416   9.9647584
  35.3982584  -9.5977416  10.7527584  26.5462584 -12.4707416   0.5847584
  26.1632584 -11.6677416   0.9377584  26.3052584 -13.1497416   1.2157584
  24.4092584 -19.3237416  -5.1172416  24.6502584 -19.8817416  -4.3772416
  24.1892584 -18.4807416  -4.7202416  13.3692584 -17.9197416   4.4807584
  14.2252584 -18.1317416   4.8537584  12.8202584 -17.7207416   5.2387584
  34.6672584 -13.2697416 -12.0032416  34.2722584 -12.5097416 -12.4312416
  34.6462584 -13.9567416 -12.6692416  11.8322584 -13.3597416 -19.0192416
  11.7432584 -12.4237416 -18.8402416  12.7732584 -13.5257416 -18.9642416
  10.7722584 -16.2717416  -4.6572416  11.4802584 -15.8187416  -5.1162416
  10.0402584 -15.6547416  -4.6762416  21.5612584 -12.9707416   1.1107584
  21.6202584 -12.0187416   1.1877584  21.5912584 -13.1377416   0.1687584
  26.8332584  -4.5027416   2.2857584  27.4682584  -4.3077416   2.9747584
  26.6002584  -3.6477416   1.9237584  34.3282584  -9.1837416   2.0517584
  33.5472584  -9.6707416   2.3147584  34.8982584  -9.2097416   2.8197584
   8.9032584 -17.0067416  -2.0182416   8.4612584 -17.4527416  -2.7412416
   8.2742584 -16.3487416  -1.7222416  10.9792584 -18.4267416 -13.8392416
  11.9332584 -18.3497416 -13.8062416  10.6962584 -17.6817416 -14.3692416
  29.5032584 -11.2097416   2.3837584  28.9142584 -10.4597416   2.2937584
  28.9562584 -11.8997416   2.7607584  35.8062584  -1.0127416   1.0007584
  36.3962584  -0.7027416   1.6867584  35.7002584  -0.2617416   0.4167584
  25.7092584   4.1352584 -18.6632416  25.8062584   5.0372584 -18.3572416
  26.3902584   4.0342584 -19.3292416  31.5132584  -6.2477416  -5.9472416
  30.9312584  -5.5187416  -6.1602416  32.0752584  -5.9097416  -5.2492416
  29.7402584  -5.9887416 -15.0922416  29.0822584  -5.4777416 -15.5642416
  29.6832584  -6.8647416 -15.4732416  26.7472584 -21.5067416  -2.1432416
  27.0452584 -21.2167416  -3.0052416  25.8732584 -21.1287416  -2.0512416
  31.7712584   4.6182584   0.3877584  32.5052584   4.1682584  -0.0312416
  30.9952584   4.2772584  -0.0582416  29.1642584   8.1652584 -15.0902416
  28.6852584   8.9872584 -14.9942416  29.4862584   7.9702584 -14.2102416
  26.9712584   2.4322584  -5.8202416  27.4712584   2.5752584  -6.6242416
  27.5732584   1.9612584  -5.2442416  23.4302584 -18.9727416 -12.3442416
  23.6912584 -19.8487416 -12.6272416  24.2502584 -18.5457416 -12.0982416
  25.0482584 -17.9167416 -10.5572416  25.2152584 -16.9867416 -10.4012416
  24.8882584 -18.2817416  -9.6872416  27.5222584   2.5422584 -16.5562416
  26.7982584   3.0312584 -16.9452416  27.4432584   2.7042584 -15.6162416
  28.8922584 -21.5537416   0.0257584  29.5042584 -21.7677416  -0.6792416
  28.1492584 -21.1447416  -0.4182416  34.3422584  -0.1507416 -11.2542416
  34.2102584   0.4332584 -10.5072416  33.5592584  -0.7007416 -11.2712416
  28.3072584 -19.4547416 -14.6412416  28.3042584 -18.9057416 -13.8562416
  28.7542584 -18.9257416 -15.3022416  29.2012584 -11.4257416  -3.1602416
  29.1762584 -11.2467416  -4.1012416  30.0812584 -11.7707416  -3.0052416
  23.8022584  -3.4747416  -6.0252416  23.9222584  -4.0647416  -6.7692416
  24.6402584  -3.0217416  -5.9412416  35.0572584  -4.1337416 -10.0192416
  34.9402584  -4.2677416  -9.0792416  35.5012584  -3.2877416 -10.0872416
   9.2732584   6.7682584 -15.8722416   8.8412584   7.2092584 -16.6032416
   9.6602584   7.4782584 -15.3592416  24.6522584  -1.9507416 -12.4472416
  23.7642584  -2.2957416 -12.3532416  24.9142584  -2.2017416 -13.3332416
  32.6952584   3.7892584   9.4057584  33.5432584   3.3502584   9.3297584
  32.2372584   3.5672584   8.5947584  33.8682584  -4.0017416  -5.8212416
  33.4722584  -3.7817416  -4.9772416  34.0052584  -4.9487416  -5.7812416
  27.1252584   1.9812584 -13.9282416  26.6522584   1.1492584 -13.9112416
  28.0392584   1.7402584 -13.7772416  30.2372584   0.0602584  -5.8892416
  29.7622584   0.0442584  -6.7202416  31.1452584  -0.1257416  -6.1282416
  28.7192584   5.4582584 -15.4462416  29.0262584   5.1372584 -16.2942416
  28.9942584   6.3752584 -15.4232416  29.7592584   1.6172584 -13.1312416
  29.7072584   0.8332584 -12.5842416  30.6772584   1.6642584 -13.3982416
  32.4222584 -18.3187416  -6.9702416  32.0492584 -18.9257416  -7.6092416
  33.2782584 -18.0867416  -7.3302416  31.3052584   0.2602584 -15.6452416
  31.9502584   0.8832584 -15.3112416  31.6302584   0.0192584 -16.5122416
  32.5162584  -5.0457416 -15.6502416  32.6232584  -5.7017416 -16.3392416
  31.6822584  -5.2677416 -15.2352416  32.8662584  -0.6757416   3.8697584
  33.1312584   0.1272584   3.4217584  32.2212584  -1.0747416   3.2867584
  35.2652584  -6.5227416  -5.2552416  35.5212584  -7.4117416  -5.4992416
  35.8992584  -5.9597416  -5.7012416  28.6902584  -3.8887416 -10.3892416
  27.8802584  -3.6007416  -9.9682416  28.4002584  -4.3957416 -11.1472416
  28.5022584  -0.2677416  -8.4732416  27.5652584  -0.1847416  -8.2962416
  28.5492584  -0.6437416  -9.3522416  27.1342584   4.3972584   8.9997584
  26.2482584   4.7532584   8.9367584  27.5752584   4.7092584   8.2097584
  29.9612584  -2.2537416  -2.0012416  29.4942584  -1.5027416  -2.3692416
  30.6192584  -1.8667416  -1.4232416  26.9062584  -0.0257416 -11.7892416
  26.3112584  -0.6937416 -12.1302416  27.7042584  -0.5057416 -11.5702416
  30.8972584  -3.8177416  -8.8672416  31.3462584  -4.6317416  -9.0942416
  30.1462584  -3.7857416  -9.4602416  34.6642584   4.2702584 -12.8732416
  34.9512584   3.3672584 -12.7432416  34.5892584   4.3642584 -13.8232416
  34.3472584   3.6572584  -0.5192416  34.4242584   3.0252584  -1.2332416
  35.1362584   4.1942584  -0.5872416  36.1912584  -6.3157416  -1.9962416
  35.8612584  -6.5217416  -1.1222416  35.7512584  -6.9407416  -2.5722416
  24.2182584   1.1442584  -1.7112416  24.0742584   0.4492584  -2.3542416
  23.9692584   1.9482584  -2.1662416  32.7092584 -19.4247416 -17.1062416
  31.8902584 -18.9317416 -17.1512416  32.4722584 -20.2467416 -16.6772416
  35.0312584  -5.0877416 -14.4192416  34.3582584  -5.1207416 -15.0992416
  35.4202584  -4.2167416 -14.5082416  25.3552584 -10.1177416  -1.2492416
  25.3062584  -9.8767416  -0.3242416  26.2212584  -9.8207416  -1.5282416
  18.9882584 -17.3847416  -3.9142416  18.2512584 -17.1787416  -3.3382416
  19.6902584 -16.8037416  -3.6222416  31.8212584   8.1472584 -16.1152416
  30.8742584   8.0342584 -16.0392416  32.1752584   7.7382584 -15.3252416
  31.3482584   6.9032584 -10.7092416  32.1802584   6.4302584 -10.6942416
  30.7172584   6.2902584 -10.3322416  34.8232584   6.7772584 -11.7942416
  34.7602584   5.8252584 -11.8752416  34.7482584   6.9422584 -10.8542416
  33.9112584   1.6712584  -2.2632416  34.2402584   1.9642584  -3.1132416
  33.6342584   0.7672584  -2.4112416  35.8362584   1.8512584 -17.2482416
  36.7402584   2.1562584 -17.1802416  35.4232584   2.4582584 -17.8622416
  25.2952584   7.7682584  -5.5312416  26.0182584   8.3912584  -5.4632416
  25.7142584   6.9372584  -5.7532416  36.9052584   5.4692584  -1.2282416
  36.7442584   5.9332584  -2.0502416  36.4572584   5.9932584  -0.5652416
  32.4962584   4.4442584  -7.6072416  32.2452584   4.0312584  -8.4332416
  31.8702584   5.1602584  -7.4972416  22.6542584   1.8962584 -16.3442416
  23.1372584   1.7142584 -17.1502416  22.5592584   1.0412584 -15.9242416
  20.7042584   6.3532584  -4.0172416  21.6402584   6.2842584  -3.8302416
  20.4572584   5.4842584  -4.3332416  32.3602584   3.5932584 -17.5692416
  31.4492584   3.3022584 -17.5532416  32.5812584   3.6392584 -18.4992416
  28.3472584   5.6002584 -12.8322416  28.6122584   5.3732584 -13.7232416
  28.7292584   6.4642584 -12.6802416  24.2472584   5.2952584   8.8247584
  23.5862584   5.5432584   9.4707584  23.7452584   4.9282584   8.0967584
  23.2402584 -17.0017416  -3.6092416  23.2742584 -17.0557416  -2.6542416
  22.6462584 -16.2717416  -3.7862416  10.0732584   5.8972584  -7.1132416
   9.2172584   5.4722584  -7.1652416  10.4612584   5.7642584  -7.9772416
  35.8852584  -2.3647416 -15.5182416  36.7532584  -2.7427416 -15.6632416
  35.3552584  -2.6977416 -16.2422416  34.5132584  -2.6757416 -17.8382416
  35.0062584  -2.3907416 -18.6082416  34.5402584  -3.6317416 -17.8762416
   7.3642584   4.3062584 -15.7382416   7.7962584   3.7642584 -16.3992416
   8.0372584   4.9272584 -15.4602416  29.1002584  -1.3007416 -11.0942416
  28.9852584  -2.2447416 -10.9912416  29.6052584  -1.2067416 -11.9012416
  28.0142584   4.2162584  -7.8342416  27.7972584   4.3792584  -8.7522416
  27.9892584   5.0802584  -7.4242416  34.5502584 -20.3857416 -13.1132416
  34.8242584 -19.9027416 -13.8932416  35.2072584 -21.0747416 -13.0142416
  25.6862584  -0.6727416  -8.0402416  25.4832584  -1.3027416  -8.7312416
  25.0642584   0.0412584  -8.1752416  34.7862584   7.3572584  -8.9422416
  34.6452584   7.8052584  -8.1082416  35.6952584   7.0612584  -8.9062416
  36.6982584 -11.9567416 -15.4412416  36.4302584 -12.1247416 -16.3442416
  37.5322584 -12.4167416 -15.3482416  32.1332584   6.9862584  -6.4862416
  32.8612584   6.5002584  -6.0992416  32.5432584   7.7462584  -6.8982416
  33.4542584  -0.9897416  -2.8472416  33.1532584  -1.8297416  -3.1932416
  34.3452584  -1.1617416  -2.5422416   8.1142584   8.3932584  -9.4322416
   8.6122584   7.8322584 -10.0282416   7.2712584   8.5172584  -9.8682416
   7.3222584 -21.2867416 -13.2362416   7.3272584 -21.3587416 -14.1912416
   7.8672584 -22.0147416 -12.9382416  27.2992584   4.7482584 -10.4232416
  27.5762584   4.8032584 -11.3372416  27.0722584   5.6472584 -10.1862416
  30.8312584   7.6182584   7.9937584  31.0562584   7.0902584   8.7597584
  30.9082584   8.5232584   8.2957584  24.9962584 -20.0677416 -17.3652416
  25.0112584 -20.2577416 -16.4272416  25.1892584 -20.9077416 -17.7832416
  28.4782584  -0.1247416 -16.1772416  29.3842584   0.0362584 -15.9142416
  28.1222584   0.7452584 -16.3542416  32.0272584  -3.4307416  -3.8502416
  32.3112584  -4.2907416  -3.5422416  31.4562584  -3.1037416  -3.1552416
  33.1332584   1.5112584  -9.2062416  32.2342584   1.3332584  -8.9312416
  33.0712584   2.3132584  -9.7252416  15.0392584 -16.9117416   9.4507584
  15.4142584 -16.8267416  10.3267584  14.5562584 -17.7377416   9.4747584
   7.7442584   1.4672584 -10.9942416   7.3792584   1.8722584 -11.7802416
   7.0502584   1.5452584 -10.3392416  28.2852584 -18.7187416   8.3377584
  28.8222584 -19.2997416   8.8767584  28.8992584 -18.0627416   8.0067584
  26.2872584   3.6902584  -1.7492416  26.0382584   3.9552584  -0.8642416
  25.7122584   2.9512584  -1.9492416  31.8822584   4.9302584   4.6087584
  32.6542584   4.8422584   4.0497584  31.2142584   4.3922584   4.1827584
  26.9822584   5.7472584   3.9127584  27.7322584   5.5772584   3.3427584
  26.7962584   6.6792584   3.7917584  33.2722584   7.0902584 -14.0532416
  33.7112584   7.3802584 -13.2532416  33.7242584   6.2812584 -14.2942416
  29.1922584   5.9812584 -18.3622416  30.1172584   6.0462584 -18.5992416
  28.9212584   5.1232584 -18.6892416  24.8062584  -0.8207416 -16.1562416
  24.6082584  -1.6717416 -16.5482416  24.9662584  -0.2447416 -16.9032416
  35.8962584   1.6702584   0.9287584  36.7502584   2.0712584   0.7697584
  35.2752584   2.2402584   0.4737584  26.3772584   0.8262584  -0.0072416
  26.0692584   0.4862584   0.8327584  25.5892584   0.8812584  -0.5472416
  36.1192584  -2.2107416   9.7327584  35.6872584  -2.5357416   8.9427584
  36.9382584  -2.7027416   9.7787584  29.6462584   1.2662584   5.0067584
  30.4832584   1.7312584   5.0267584  29.1142584   1.7562584   4.3797584
  36.5262584  -1.4587416  -9.7692416  37.3322584  -1.0577416 -10.0952416
  35.9062584  -1.3707416 -10.4932416  36.9322584 -20.3157416   3.3467584
  37.1652584 -20.9677416   2.6857584  35.9902584 -20.4307416   3.4757584
  21.8072584   2.7442584   9.4877584  20.9492584   3.1672584   9.5087584
  22.2822584   3.1982584   8.7917584  33.5942584 -11.4367416  10.2897584
  33.5742584 -10.8857416  11.0717584  33.4462584 -10.8287416   9.5647584
  36.2932584   4.8662584   6.6057584  35.7172584   4.9202584   7.3677584
  35.7852584   4.3812584   5.9547584  34.6222584   3.0632584   5.1837584
  33.8072584   2.9752584   4.6907584  34.5612584   2.3972584   5.8687584
  33.6452584  -3.3227416   4.5997584  33.7912584  -2.4917416   4.1487584
  32.7102584  -3.4967416   4.4887584  33.8212584 -16.3967416  10.7757584
  32.9972584 -16.7937416  10.4937584  33.8162584 -15.5267416  10.3767584
  31.0702584   0.2002584   7.7997584  31.7562584   0.6812584   7.3377584
  30.2862584   0.7392584   7.6917584  35.2602584  -6.5567416   0.8107584
  35.2672584  -5.6217416   0.6027584  34.3822584  -6.7197416   1.1537584
  33.2572584  -4.0277416   9.4907584  33.9472584  -4.6577416   9.2857584
  33.6182584  -3.1817416   9.2257584  37.0992584   6.4672584   2.4857584
  36.5692584   6.8162584   3.2027584  37.2352584   5.5472584   2.7127584
  34.7492584   1.7352584   9.0747584  35.3882584   2.2352584   9.5817584
  35.2522584   1.3712584   8.3467584  35.0032584  -3.6477416   7.2577584
  34.5532584  -3.2617416   6.5067584  35.0642584  -4.5797416   7.0477584
  28.0162584  -1.1267416   5.1657584  28.6352584  -0.3997416   5.2307584
  28.0032584  -1.3477416   4.2337584  33.3102584 -20.8887416   7.1587584
  33.0802584 -21.4777416   6.4407584  34.1032584 -21.2687416   7.5367584
  31.2912584  -9.3097416  10.0047584  30.8982584  -8.4367416   9.9967584
  30.5542584  -9.9027416  10.1547584  10.9892584 -18.9257416 -17.8442416
  10.3522584 -18.4677416 -18.3932416  10.4622584 -19.5117416 -17.3022416
  36.2712584   0.4442584   7.1137584  36.9862584  -0.0597416   7.5027584
  36.6622584   0.8622584   6.3467584  33.6512584   0.5372584   6.4447584
  34.4932584   0.1202584   6.6277584  33.3292584   0.0922584   5.6597584
  26.5902584   1.2622584   5.8577584  26.7012584   0.5402584   5.2387584
  27.3052584   1.1542584   6.4837584  27.9312584 -17.6637416   0.8667584
  28.0562584 -17.6137416  -0.0802416  28.8022584 -17.5127416   1.2327584
  36.2132584   7.2472584   4.9527584  37.0552584   7.5982584   5.2447584
  36.0392584   6.5162584   5.5457584  24.0292584 -20.3557416   7.7097584
  24.6692584 -20.9707416   8.0697584  24.3162584 -19.4987416   8.0247584
  33.3512584   4.8382584 -15.4712416  32.8602584   5.6472584 -15.3282416
  33.0032584   4.4892584 -16.2912416  24.2332584   6.8462584   5.4377584
  24.7742584   6.9402584   6.2217584  24.3682584   5.9402584   5.1607584
  30.8132584   3.3872584   2.6957584  30.0452584   3.0332584   2.2467584
  31.3432584   3.7722584   1.9977584  28.4462584   1.9512584   1.4077584
  27.7112584   1.5162584   0.9767584  28.0492584   2.4272584   2.1367584
  31.6152584 -12.1497416   0.7357584  32.4462584 -11.9347416   1.1597584
  30.9472584 -11.8087416   1.3307584   9.8972584  -0.4047416 -18.8452416
   9.0562584   0.0532584 -18.8362416  10.0832584  -0.5447416 -19.7742416
  25.7672584   5.0072584   0.5987584  26.5902584   5.4402584   0.8247584
  25.1282584   5.3722584   1.2097584  31.1512584 -19.8987416   3.9817584
  30.2772584 -19.6197416   4.2567584  31.1942584 -20.8247416   4.2207584
  35.9992584  -5.4397416   9.6587584  36.6082584  -4.7107416   9.5437584
  36.5602584  -6.2107416   9.7417584  30.7862584  -1.1197416 -13.2772416
  31.6482584  -1.5187416 -13.1582416  30.8172584  -0.7357416 -14.1532416
  28.2122584   0.3902584  -2.0342416  27.8342584   0.4952584  -1.1602416
  28.6502584   1.2232584  -2.2082416  36.5512584 -15.0997416   2.3617584
  36.1622584 -15.3947416   1.5387584  36.2192584 -15.7127416   3.0177584
  31.7592584   6.3472584  10.2077584  32.1212584   5.5022584   9.9417584
  32.3752584   6.6772584  10.8617584  29.5092584 -20.9627416 -19.3602416
  30.0422584 -21.2397416 -18.6152416  30.1452584 -20.7487416 -20.0432416
   9.2572584 -19.1237416   0.2597584   9.2292584 -18.4647416  -0.4342416
   8.5852584 -19.7597416   0.0147584  23.2212584   7.6942584  -0.7902416
  22.2842584   7.6072584  -0.9672416  23.3292584   7.3592584   0.0997584
  27.5792584   2.6422584   3.8237584  27.2762584   3.5412584   3.9497584
  27.0322584   2.1202584   4.4107584   8.0622584 -15.3487416 -18.4752416
   8.3912584 -14.8947416 -19.2512416   8.8062584 -15.3677416 -17.8742416
  20.3072584   7.6812584  -1.2762416  20.6142584   7.0922584  -1.9652416
  19.5382584   8.1092584  -1.6522416  28.4812584 -16.3027416  40.5507584
  27.7342584 -16.6117416  41.0637584  28.1132584 -15.6397416  39.9667584
  28.3182584 -20.4167416  32.3547584  28.1582584 -21.2657416  31.9427584
  28.8282584 -19.9277416  31.7087584  13.9042584  -2.8557416  32.0897584
  13.5772584  -2.2007416  32.7077584  14.8462584  -2.6927416  32.0447584
  19.0782584  -9.5977416  22.7007584  18.4832584 -10.3207416  22.8997584
  19.9502584  -9.9897416  22.7287584  13.0722584 -14.5967416  19.3207584
  12.6072584 -15.3937416  19.0677584  13.0962584 -14.0697416  18.5217584
  22.2982584  -3.7377416  26.2247584  21.4872584  -3.9197416  25.7497584
  22.9832584  -3.7937416  25.5577584  16.2572584 -12.8837416  28.4457584
  15.6512584 -13.3167416  29.0477584  16.5872584 -13.5897416  27.8897584
  18.4192584 -10.2177416  16.3237584  17.8352584  -9.7677416  16.9337584
  18.8722584 -10.8687416  16.8597584  24.6602584  -6.3387416  28.5277584
  25.1412584  -6.4217416  29.3517584  25.3252584  -6.4577416  27.8497584
  29.2732584 -12.0617416  16.9557584  29.1842584 -11.8277416  16.0317584
  29.9322584 -11.4547416  17.2937584  12.8082584  -7.8797416  19.5697584
  12.9582584  -7.8487416  20.5147584  11.9472584  -7.4797416  19.4497584
  36.5012584  -2.6057416  25.8217584  36.8412584  -2.0327416  26.5097584
  37.0912584  -2.4677416  25.0807584   9.7262584 -14.4027416  39.4667584
  10.4672584 -13.9907416  39.9127584  10.0562584 -14.6057416  38.5917584
  35.2302584 -16.0027416  16.1687584  34.2902584 -15.8827416  16.0327584
  35.4092584 -16.8867416  15.8497584  25.6252584 -16.7087416  35.6657584
  25.3082584 -17.0517416  36.5007584  25.5652584 -17.4497416  35.0627584
  35.9932584 -11.6267416  26.3927584  35.0542584 -11.5657416  26.2187584
  36.0502584 -11.9697416  27.2847584  25.1712584  -7.1097416  21.2847584
  24.4452584  -7.2017416  20.6677584  24.8972584  -7.6097416  22.0537584
  16.8482584   2.4372584  40.8057584  16.2412584   3.0282584  40.3607584
  17.7162584   2.7812584  40.5947584  21.7242584   4.4832584  12.5107584
  22.3482584   4.4772584  11.7847584  22.1652584   3.9982584  13.2087584
   8.7822584 -13.6977416  15.7577584   9.1062584 -14.4857416  15.3227584
   9.5682584 -13.2717416  16.1007584  11.5712584 -19.8707416  27.2577584
  10.6402584 -19.7337416  27.0837584  11.9612584 -19.9947416  26.3927584
  24.1712584  -7.1847416  39.0047584  25.0132584  -7.5827416  39.2257584
  24.3342584  -6.7197416  38.1837584  18.2122584 -19.3847416  28.7657584
  17.9502584 -18.4637416  28.7587584  18.8852584 -19.4377416  29.4437584
  22.3482584 -20.8857416  19.4917584  21.9582584 -20.1377416  19.0397584
  22.2832584 -21.6057416  18.8647584  22.6122584  -7.5307416  23.7147584
  22.0032584  -7.5847416  24.4517584  22.0612584  -7.3097416  22.9637584
  19.4702584 -12.4897416  37.5797584  19.0692584 -11.7387416  37.1437584
  20.1792584 -12.1137416  38.1017584  35.7282584  -5.9947416  18.2627584
  35.6422584  -5.4167416  17.5047584  35.3812584  -5.4847416  18.9947584
  15.5472584 -15.1817416  14.1217584  16.2112584 -14.6597416  13.6717584
  15.1812584 -14.5887416  14.7787584  31.5782584 -12.1547416  27.9847584
  31.9142584 -13.0477416  27.9147584  31.4842584 -12.0067416  28.9257584
  14.9872584  -7.7957416  17.7117584  14.3522584  -8.0567416  18.3787584
  15.5582584  -8.5577416  17.6127584  16.2792584 -18.7587416  22.9207584
  16.4592584 -18.3027416  22.0987584  16.9662584 -18.4597416  23.5177584
  23.0442584  -7.5727416  19.6307584  22.3582584  -6.9997416  19.2887584
  22.5952584  -8.3947416  19.8277584  14.8422584  -4.2647416  23.1217584
  14.3262584  -3.6717416  23.6687584  14.8072584  -5.1047416  23.5797584
  29.6482584 -17.9607416  13.2837584  28.8752584 -17.9907416  12.7197584
  29.9912584 -17.0737416  13.1727584  28.4222584  -1.0647416  25.5667584
  28.0692584  -0.5277416  26.2767584  29.1412584  -0.5447416  25.2067584
  14.4012584 -13.3627416  40.4717584  14.5532584 -12.8237416  41.2477584
  15.2582584 -13.4247416  40.0507584  17.6032584   4.3182584  37.4147584
  17.5952584   4.7172584  36.5447584  16.8092584   4.6472584  37.8367584
  11.8802584 -17.9547416  22.9667584  11.0272584 -17.6157416  22.6927584
  12.4242584 -17.1747416  23.0737584  20.3402584  -9.2467416  37.6777584
  20.7672584  -9.5187416  36.8647584  21.0552584  -9.1617416  38.3077584
  22.7642584 -17.0637416  33.8277584  23.3162584 -16.4227416  33.3797584
  22.4602584 -17.6467416  33.1327584  19.1352584 -16.6347416  29.0507584
  20.0042584 -16.2487416  28.9437584  18.9592584 -16.5737416  29.9897584
  16.5842584 -15.5677416  24.1797584  15.6612584 -15.7447416  24.3607584
  16.7382584 -15.9557416  23.3187584  19.9202584 -16.8237416  23.6547584
  20.7492584 -17.2897416  23.5427584  19.5632584 -17.1647416  24.4757584
  18.1122584  -6.0507416  22.5207584  17.2642584  -6.4577416  22.3447584
  17.9222584  -5.1137416  22.5757584  18.4712584 -12.9137416  19.9697584
  18.5342584 -13.6227416  20.6107584  17.8662584 -12.2867416  20.3637584
  13.2002584 -20.6857416  15.0827584  14.0492584 -21.0947416  14.9137584
  13.3542584 -19.7507416  14.9507584  16.6052584 -12.8447416  17.1837584
  17.0942584 -13.1107416  17.9627584  17.2122584 -12.2837416  16.7007584
  18.1612584  -3.1697416  26.5857584  18.7962584  -3.6827416  26.0857584
  17.3322584  -3.6327416  26.4687584  16.2662584 -11.4847416  20.5987584
  16.5022584 -11.2447416  21.4947584  15.3332584 -11.6957416  20.6447584
  19.3842584 -18.5387416  17.2687584  19.7762584 -18.0587416  17.9987584
  20.0192584 -19.2257416  17.0637584   9.9572584 -11.2447416  26.5587584
   9.3912584 -10.7727416  25.9477584   9.3512584 -11.6977416  27.1457584
  10.9862584 -15.6367416  29.1657584  11.7292584 -16.1717416  28.8877584
  10.2352584 -16.0117416  28.7047584  14.4582584 -16.0787416  21.3897584
  13.8432584 -15.5007416  20.9377584  14.8342584 -16.6197416  20.6957584
  11.6832584 -17.2507416  19.2307584  11.0122584 -17.8887416  19.4707584
  11.9452584 -17.4987416  18.3447584  25.3992584 -10.3687416  21.7117584
  25.9832584 -10.4077416  20.9547584  24.5222584 -10.4717416  21.3447584
  19.8092584 -18.8237416  13.2657584  19.4412584 -18.4537416  12.4637584
  20.4682584 -18.1867416  13.5437584  30.8722584  -2.3147416  36.2427584
  30.1382584  -2.6197416  36.7747584  31.2682584  -1.6127416  36.7597584
  11.1892584 -11.5337416  29.8557584  11.8992584 -12.0767416  29.5117584
  11.3292584 -10.6747416  29.4567584  20.7982584 -11.8727416  13.7877584
  21.2752584 -12.6197416  14.1477584  21.4142584 -11.1417416  13.8507584
  17.8742584 -10.2807416  11.0947584  18.1562584  -9.6007416  10.4827584
  17.7872584  -9.8267416  11.9337584  22.8322584 -14.9537416  19.6067584
  22.8132584 -14.9537416  20.5637584  23.7342584 -14.7197416  19.3857584
  26.0302584  -1.8767416  24.3087584  26.8462584  -1.7577416  24.7937584
  26.2362584  -1.5947416  23.4177584  14.5502584  -6.6177416  24.7257584
  13.9342584  -6.9047416  25.3997584  14.9052584  -7.4307416  24.3647584
  29.3522584  -9.5847416  19.3137584  29.3962584  -8.6337416  19.2217584
  30.0112584  -9.9167416  18.7037584   8.7692584 -19.7287416  22.9987584
   8.8632584 -20.1677416  22.1537584   8.9742584 -18.8117416  22.8177584
  16.9912584  -8.0027416  31.3217584  17.1052584  -8.9527416  31.3097584
  17.4182584  -7.6997416  30.5197584  13.0712584 -10.4317416  38.9727584
  13.8782584 -10.3567416  39.4807584  12.3892584 -10.5897416  39.6257584
  19.8242584  -8.4197416  24.9537584  19.4562584  -8.2277416  24.0907584
  20.1752584  -9.3067416  24.8727584  17.3362584 -13.0217416  13.5657584
  17.9932584 -12.9607416  12.8727584  17.7872584 -12.7127416  14.3517584
  11.9002584  -6.1457416  33.7477584  11.7572584  -5.6657416  32.9317584
  12.1642584  -5.4747416  34.3767584  17.1662584 -19.9447416  19.7857584
  18.0792584 -19.7817416  19.5487584  17.2092584 -20.3107416  20.6687584
  19.7092584 -12.1737416  17.6637584  20.1172584 -12.6097416  16.9147584
  19.8112584 -12.7927416  18.3867584  27.8752584  -7.0107416  21.4777584
  27.6632584  -6.5937416  22.3127584  27.0242584  -7.2097416  21.0867584
  25.4442584 -10.7527416  38.2167584  25.1332584 -10.6927416  37.3137584
  26.3922584 -10.6387416  38.1527584  12.2592584  -9.3677416  28.7647584
  13.0252584  -9.8497416  28.4527584  11.8822584  -8.9797416  27.9747584
  11.6632584 -14.5747416  31.7147584  11.5692584 -14.8487416  30.8017584
  11.6532584 -13.6187416  31.6807584  23.9922584 -12.7287416  32.5327584
  23.3192584 -13.3027416  32.1667584  24.5772584 -13.3177416  33.0087584
  24.5272584 -20.2507416  27.9917584  24.3392584 -19.4007416  28.3897584
  23.7852584 -20.8017416  28.2397584  15.6952584 -17.4277416  19.2317584
  16.0562584 -17.1117416  18.4037584  16.1742584 -18.2377416  19.4087584
  11.3652584 -13.5257416  17.1777584  10.7932584 -13.2347416  17.8877584
  11.5162584 -12.7397416  16.6527584  28.1242584 -13.4437416  28.4727584
  27.6832584 -13.1257416  29.2607584  28.4892584 -12.6567416  28.0677584
  16.9652584 -18.6817416  16.2607584  17.8142584 -18.8307416  16.6787584
  16.9932584 -19.2107416  15.4637584  16.2192584  -5.1667416  26.2297584
  15.9222584  -5.5557416  27.0517584  15.5962584  -5.4847416  25.5757584
  32.1382584 -10.8567416  33.0537584  31.5992584 -11.4257416  33.6027584
  31.5412584 -10.1667416  32.7627584  20.1852584 -15.4867416  31.5247584
  20.4602584 -14.5727416  31.4537584  20.6482584 -15.8167416  32.2947584
  21.1852584 -11.5467416  39.7157584  21.9122584 -12.1067416  39.9877584
  21.5472584 -11.0117416  39.0087584  22.2002584 -14.4487416  38.6677584
  22.4252584 -14.5237416  39.5947584  21.3432584 -14.8687416  38.5937584
  32.1202584  -6.2457416  20.2067584  32.5092584  -6.9787416  20.6847584
  32.5212584  -6.2847416  19.3387584  12.9352584 -10.0157416  22.9057584
  12.7032584  -9.7967416  23.8087584  13.7782584  -9.5857416  22.7647584
  36.2642584 -19.1977416  24.1997584  36.3832584 -18.8427416  25.0807584
  37.1532584 -19.3387416  23.8747584  22.5402584 -13.7037416  24.1897584
  22.6992584 -14.4237416  23.5797584  23.4132584 -13.4377416  24.4787584
   8.3932584  -3.7537416  40.0687584   9.0982584  -3.4677416  40.6487584
   8.8402584  -4.1957416  39.3477584  11.2742584 -10.5937416  20.8107584
  10.5512584  -9.9827416  20.9477584  11.8802584 -10.4137416  21.5307584
   9.6632584 -19.2967416  20.1057584   9.1142584 -18.5587416  19.8387584
   9.0752584 -20.0517416  20.0867584  19.7672584  -7.3747416  27.3607584
  19.8812584  -7.8207416  26.5207584  20.5862584  -6.8967416  27.4917584
  22.9042584  -9.5027416  38.6447584  23.7412584  -9.9627416  38.7177584
  23.1062584  -8.5987416  38.8867584  15.2382584  -3.2817416  27.8897584
  15.0062584  -3.9887416  28.4917584  15.4352584  -3.7247416  27.0647584
  15.2132584 -20.5147416  24.6827584  15.3802584 -19.7617416  24.1157584
  15.7782584 -20.3717416  25.4437584  26.1842584 -13.2187416  16.5887584
  27.1022584 -13.1877416  16.8597584  26.0382584 -14.1307416  16.3397584
  22.8282584  -9.9147416  14.3427584  23.6482584 -10.3917416  14.4657584
  22.6572584  -9.5067416  15.1927584  20.8142584  -6.5077416  21.8757584
  20.0292584  -6.1957416  22.3257584  20.6942584  -6.2347416  20.9667584
  13.9282584 -11.1567416  27.5317584  14.8642584 -11.3537416  27.4937584
  13.5242584 -11.9677416  27.8407584  20.6372584 -21.0017416  15.7447584
  21.4542584 -21.0227416  16.2417584  20.9112584 -21.0557416  14.8287584
  19.0542584 -12.6947416  11.4377584  18.6662584 -11.8637416  11.1657584
  19.9982584 -12.5397416  11.4117584  21.2482584  -0.8597416  30.4847584
  20.3752584  -1.0457416  30.8287584  21.3072584  -1.3847416  29.6857584
  15.9752584  -6.7387416  21.1317584  15.0922584  -6.8937416  21.4687584
  15.9232584  -5.8797416  20.7117584  32.9692584  -5.9887416  26.2147584
  33.7882584  -6.1137416  25.7357584  33.0242584  -6.6017416  26.9477584
  21.9252584 -16.5357416  17.3557584  22.4812584 -17.3117416  17.2867584
  22.4612584 -15.8967416  17.8257584  21.9342584  -3.1917416  39.4617584
  22.2172584  -2.3167416  39.1927584  22.4542584  -3.3827416  40.2417584
  21.9952584  -6.0727416  27.4807584  22.1062584  -5.2647416  26.9797584
  22.8662584  -6.2597416  27.8307584  14.9212584  -8.3137416  37.3877584
  14.6932584  -8.8307416  38.1607584  15.6192584  -7.7307416  37.6847584
  25.9992584  -2.9207416  40.1617584  26.3672584  -3.8027416  40.1107584
  26.6912584  -2.3517416  39.8247584  34.6462584  -9.0847416  23.2707584
  34.1612584  -9.9047416  23.3577584  35.5092584  -9.3487416  22.9517584
  26.9972584 -10.6127416  19.4387584  27.9002584 -10.3037416  19.3607584
  26.4822584  -9.9767416  18.9417584  20.8692584  -9.5257416  18.9307584
  20.1512584  -9.1187416  19.4167584  20.5842584 -10.4287416  18.7937584
  11.6252584 -21.5957416  19.7717584  12.1472584 -21.2367416  20.4887584
  10.9012584 -20.9777416  19.6687584  20.6852584 -11.3177416  26.0407584
  21.3112584 -10.6037416  26.1607584  21.2042584 -12.0307416  25.6657584
  35.9952584 -14.8137416  25.7367584  35.7882584 -15.2257416  24.8987584
  35.1712584 -14.4147416  26.0177584  13.5442584  -9.0357416  31.4217584
  12.9572584  -8.9297416  30.6727584  14.0012584  -8.1977416  31.4887584
   9.3872584 -19.1327416  25.6397584   9.1792584 -19.5507416  24.8037584
   9.9522584 -18.3957416  25.4047584  27.5472584 -20.3737416  25.0137584
  28.4382584 -20.5007416  24.6877584  27.5212584 -19.4567416  25.2887584
  18.4012584  -8.3347416  20.2507584  18.6862584  -8.3797416  21.1627584
  17.6622584  -7.7267416  20.2597584  13.1542584 -20.2697416  21.4587584
  13.9022584 -19.6747416  21.5027584  12.3952584 -19.7157416  21.6427584
  21.2302584 -12.2637416  20.6517584  20.2792584 -12.3377416  20.5697584
  21.5702584 -13.0467416  20.2177584  21.0342584  -5.5727416  30.5347584
  20.5762584  -5.9597416  29.7887584  21.3462584  -4.7267416  30.2107584
  25.1192584  -7.6707416  24.7597584  24.1662584  -7.6507416  24.8397584
  25.4382584  -7.4217416  25.6277584  27.9782584  -9.6057416  28.2207584
  28.5242584 -10.3187416  27.8897584  28.1042584  -8.8947416  27.5917584
  23.2892584 -10.8187416  20.2017584  22.5002584 -11.2077416  20.5787584
  23.5262584 -11.4037416  19.4827584  23.9952584  -0.9987416  26.5887584
  24.7342584  -1.5927416  26.4577584  23.9132584  -0.5297416  25.7577584
  13.5752584 -17.6877416  16.8977584  14.0172584 -17.4047416  17.6977584
  13.9702584 -17.1577416  16.2047584  25.0152584 -10.8947416  35.3337584
  24.2442584 -11.3577416  35.0057584  25.7522584 -11.3107416  34.8877584
  34.3462584  -8.4787416  27.1497584  34.6942584  -9.0647416  27.8217584
  33.6642584  -8.9907416  26.7147584  35.6752584 -10.6307416  20.2607584
  36.0892584 -10.3907416  21.0897584  36.0952584 -10.0677416  19.6107584
  13.6252584 -12.3247416  20.2877584  12.8472584 -11.7697416  20.2307584
  13.3862584 -13.1227416  19.8157584  25.1672584 -11.3697416  14.9597584
  25.7572584 -10.6257416  15.0847584  25.4192584 -11.9927416  15.6407584
  17.7262584 -16.7287416  21.7047584  17.6402584 -16.0577416  21.0267584
  18.5732584 -16.5507416  22.1127584  25.0502584 -15.7687416  16.9397584
  25.9672584 -15.9537416  16.7377584  24.5612584 -16.1587416  16.2157584
  32.0142584 -14.1357416  19.2297584  32.1242584 -14.8347416  18.5847584
  32.6922584 -13.4977416  19.0097584  16.8432584  -9.7237416  18.4957584
  17.5972584  -9.2877416  18.8927584  16.4712584 -10.2517416  19.2017584
  25.0342584 -10.2327416  31.6927584  24.7712584 -11.0687416  32.0767584
  24.2172584  -9.7427416  31.5997584  23.6002584 -17.9367416  29.6677584
  24.3032584 -17.2867416  29.6647584  23.3902584 -18.0587416  30.5937584
  18.8382584 -13.4387416  34.2267584  19.1132584 -14.0717416  34.8907584
  19.1242584 -12.5927416  34.5707584  25.5322584 -12.9297416  27.6357584
  25.3882584 -12.1147416  28.1167584  26.4482584 -13.1497416  27.8047584
  15.0172584 -11.8607416  12.5217584  15.8922584 -12.1707416  12.7537584
  14.5632584 -11.7717416  13.3597584  14.6602584 -12.0117416  37.1087584
  14.2722584 -11.4147416  37.7487584  15.0622584 -11.4377416  36.4577584
  20.6812584 -13.2057416  28.4017584  19.7652584 -13.0927416  28.6577584
  20.9112584 -12.3857416  27.9647584  34.3262584  -8.0757416  17.1957584
  33.4062584  -7.8417416  17.0737584  34.7242584  -7.2917416  17.5737584
  12.5852584 -11.7287416  32.1637584  11.6812584 -11.4817416  32.3577584
  13.0752584 -10.9087416  32.2187584  22.8922584  -7.9197416  32.1287584
  22.1222584  -7.3537416  32.0727584  22.9382584  -8.1717416  33.0507584
  12.5692584 -15.7147416  15.1597584  13.1312584 -14.9727416  14.9367584
  12.3202584 -15.5617416  16.0717584  28.6932584  -0.6747416  32.2827584
  28.7232584   0.2792584  32.2087584  28.4102584  -0.9727416  31.4187584
  23.3922584  -8.7817416  34.9467584  24.1452584  -9.1847416  35.3787584
  22.7012584  -9.4427416  35.0027584  27.5012584  -8.8837416  32.1397584
  26.7592584  -8.8587416  32.7427584  27.2272584  -8.3427416  31.3987584
  30.7802584 -10.2897416  13.9607584  29.8882584  -9.9437416  13.9427584
  31.3052584  -9.6217416  13.5197584  25.6102584  -6.7947416  31.3457584
  26.0332584  -6.3737416  32.0947584  24.7182584  -6.9737416  31.6437584
  22.1692584  -6.4007416  34.5747584  22.8242584  -5.8467416  34.1497584
  22.6802584  -7.0677416  35.0327584  27.3202584  -4.1517416  27.8767584
  28.0502584  -3.5487416  27.7377584  27.4582584  -4.4967416  28.7587584
  24.9162584 -12.5507416  25.1507584  25.4012584 -11.7257416  25.1527584
  24.9562584 -12.8547416  26.0577584  24.2522584 -17.2747416  14.3137584
  24.5162584 -18.1377416  14.6327584  23.5262584 -17.4527416  13.7147584
  19.3362584  -8.5157416  34.1007584  19.9892584  -8.4087416  33.4087584
  19.0212584  -7.6287416  34.2727584  16.4932584 -16.8167416  27.2987584
  15.6712584 -16.7997416  26.8087584  16.2242584 -16.8557416  28.2167584
  17.4782584 -11.6787416  23.2177584  18.0342584 -12.4507416  23.1097584
  17.3762584 -11.5877416  24.1657584  18.7132584 -10.9107416  35.2527584
  18.9682584 -10.0777416  34.8547584  17.9472584 -11.1907416  34.7517584
  36.0242584 -14.2937416  12.9077584  36.0632584 -14.5877416  13.8177584
  36.7332584 -14.7687416  12.4727584  20.0252584 -15.4697416  36.4757584
  19.4152584 -14.7657416  36.6937584  19.4832584 -16.1337416  36.0497584
  29.2672584 -12.1787416  40.1037584  30.1532584 -12.5387416  40.0507584
  28.6932584 -12.9337416  39.9787584  25.0302584 -15.7647416  28.9717584
  25.9332584 -15.9457416  28.7087584  24.9792584 -14.8097416  29.0147584
  23.0892584  -2.1587416  35.4857584  22.7812584  -2.7277416  36.1907584
  24.0432584  -2.1757416  35.5627584  19.5032584  -3.7277416  29.0947584
  18.7932584  -3.7787416  28.4547584  20.1532584  -3.1557416  28.6867584
  28.7702584 -11.4727416  24.1777584  27.9952584 -11.0507416  24.5487584
  28.8932584 -11.0467416  23.3297584  10.2362584  -8.6927416  36.2287584
  10.7282584  -8.8407416  35.4217584   9.9252584  -9.5617416  36.4837584
  21.8732584   7.6732584  37.3207584  22.5662584   8.2062584  36.9297584
  21.5312584   8.2112584  38.0347584  12.8572584 -13.3907416  28.8717584
  13.4562584 -13.6867416  29.5577584  12.3822584 -14.1797416  28.6117584
  13.1042584 -15.3017416  33.7957584  13.0572584 -16.2577416  33.7807584
  12.4512584 -15.0187416  33.1567584  19.2732584 -19.2777416  36.2747584
  19.0882584 -19.2237416  37.2117584  18.8682584 -18.4937416  35.9037584
  10.6662584 -11.9627416  37.7667584  10.9022584 -12.8487416  37.4927584
  11.2912584 -11.7507416  38.4597584  27.3092584 -17.7287416  25.6467584
  27.8012584 -17.0647416  25.1637584  26.4572584 -17.7597416  25.2117584
  17.4832584  -4.6437416  36.8557584  17.8062584  -5.1817416  36.1317584
  17.7282584  -3.7497416  36.6177584  12.8892584 -15.0047416  38.5847584
  13.4662584 -14.7817416  37.8547584  13.4232584 -14.8587416  39.3657584
  16.2162584 -11.4657416  34.0227584  15.5582584 -10.8727416  34.3857584
  15.7302584 -12.2617416  33.8067584   9.8292584 -12.3777416  23.2747584
   9.3182584 -11.7567416  23.7927584   9.1772584 -12.9587416  22.8847584
  17.3132584 -19.8027416  14.0317584  16.7632584 -19.7317416  13.2507584
  18.1672584 -19.4717416  13.7537584  22.7502584   3.9842584  36.9057584
  22.0152584   3.4312584  36.6417584  23.2832584   4.0682584  36.1147584
  14.3482584 -14.4257416  36.1607584  13.8672584 -14.5397416  35.3417584
  14.4672584 -13.4797416  36.2397584  21.5042584 -10.7457416  35.6197584
  20.6662584 -10.8797416  35.1777584  21.8032584 -11.6277416  35.8397584
  31.9612584 -15.4957416  27.7657584  31.0222584 -15.5357416  27.5837584
  32.3752584 -15.8247416  26.9677584  12.3502584 -10.0967416  25.7377584
  11.5862584 -10.5167416  26.1317584  13.1002584 -10.5427416  26.1327584
  23.4982584  -3.7197416  29.2697584  23.6632584  -3.0317416  28.6237584
  23.8602584  -4.5117416  28.8737584  18.6162584 -20.1517416  32.9837584
  18.9912584 -20.2707416  33.8567584  19.3662584 -19.9457416  32.4257584
  11.5672584 -19.5307416  33.2117584  12.2382584 -18.9787416  33.6147584
  10.9472584 -18.9117416  32.8277584  16.7392584  -6.7207416  38.6107584
  17.1622584  -5.9557416  38.2197584  16.2532584  -6.3707416  39.3577584
   8.9682584 -20.9397416  39.5557584   9.7682584 -20.4937416  39.8337584
   8.3012584 -20.2527416  39.5477584  19.9242584  -9.3517416  29.5777584
  19.4222584 -10.1417416  29.3807584  19.8452584  -8.8147416  28.7887584
  10.2322584   6.3902584  39.1897584  10.4592584   6.1962584  38.2797584
  10.0982584   7.3372584  39.2067584  16.0162584  -2.2867416  39.4927584
  16.2532584  -2.8007416  40.2647584  15.4212584  -1.6147416  39.8247584
  18.0052584 -17.0557416  35.3257584  17.1062584 -16.9927416  35.6487584
  17.9152584 -17.1017416  34.3737584  15.3522584 -10.1577416  40.1367584
  16.3002584 -10.0277416  40.1447584  15.1832584 -10.7437416  40.8747584
  14.6042584 -13.3187416  33.1587584  14.1972584 -14.1767416  33.2767584
  14.0912584 -12.9027416  32.4657584  13.1522584 -19.0797416  40.2717584
  12.5962584 -19.1517416  41.0467584  12.6682584 -19.5377416  39.5847584
  36.1272584 -21.6607416  37.9877584  36.4972584 -20.9167416  38.4627584
  36.6522584 -21.7217416  37.1897584  26.0202584 -18.0347416  32.9697584
  26.0522584 -18.9487416  33.2537584  26.5302584 -18.0177416  32.1597584
  21.8512584 -19.9217416  34.9477584  22.4922584 -20.0147416  35.6527584
  21.0842584 -19.5357416  35.3707584  16.4132584 -10.7337416  31.4207584
  15.4892584 -10.5767416  31.2267584  16.4212584 -11.0217416  32.3337584
  15.3822584  -4.4127416  34.2097584  16.2622584  -4.4977416  34.5757584
  15.1682584  -3.4847416  34.3107584  14.4042584 -13.5597416  16.0057584
  13.8352584 -12.8077416  16.1707584  15.1622584 -13.4167416  16.5717584
  37.3092584 -13.4007416  22.0417584  37.3862584 -14.3147416  21.7667584
  36.4872584 -13.1017416  21.6537584  28.2582584 -11.9257416  12.6337584
  28.7262584 -12.5487416  13.1887584  28.7382584 -11.9347416  11.8047584
  14.1022584 -16.9957416  26.0907584  13.6202584 -16.4437416  25.4757584
  13.4752584 -17.1807416  26.7897584  22.4442584 -13.2867416  35.9527584
  21.7302584 -13.9197416  36.0237584  22.9152584 -13.3617416  36.7827584
   8.8102584 -11.9047416  35.8257584   9.5192584 -12.0287416  36.4567584
   9.2462584 -11.5977416  35.0317584  22.6362584 -21.4047416  23.8487584
  23.3012584 -22.0547416  24.0777584  22.7812584 -20.6857416  24.4627584
  31.2202584  -2.1857416  32.0297584  31.4782584  -3.0697416  32.2917584
  30.3652584  -2.0537416  32.4407584  12.3082584 -17.5597416  37.4927584
  11.3802584 -17.4247416  37.3017584  12.5422584 -16.8357416  38.0727584
  11.7612584  -8.8047416  33.9647584  11.7202584  -7.8587416  34.1067584
  12.0772584  -8.8977416  33.0657584  28.7352584 -19.2867416  34.9257584
  28.3882584 -19.4497416  34.0487584  28.6362584 -20.1217416  35.3827584
  22.5092584  -9.5107416  26.9537584  22.1282584  -8.7527416  27.3977584
  23.3662584  -9.6237416  27.3647584  29.4862584  -3.7547416  34.4277584
  29.3762584  -4.5397416  34.9647584  29.9092584  -3.1237416  35.0087584
  14.4042584  -9.7507416  35.0137584  13.5632584  -9.4297416  34.6857584
  14.7532584  -9.0247416  35.5297584   7.3602584 -12.7577416  30.9907584
   7.0762584 -13.5607416  31.4267584   7.1742584 -12.0627416  31.6217584
  18.5582584 -11.6357416  29.3747584  17.9442584 -12.2937416  29.0497584
  18.4062584 -11.6107416  30.3197584  17.9702584 -11.5987416  25.9747584
  18.9032584 -11.4057416  25.8807584  17.9402584 -12.3767416  26.5307584
  10.7502584 -14.3747416  36.6637584  11.5502584 -14.8937416  36.7477584
  10.6042584 -14.3107416  35.7197584  27.0212584  -5.8167416  23.7067584
  27.7802584  -5.8647416  24.2877584  26.4872584  -6.5747416  23.9457584
   8.1842584  -7.3857416  40.2587584   8.7322584  -6.6217416  40.0767584
   8.1422584  -7.4287416  41.2137584  18.5392584  -8.3717416  39.5037584
  17.8992584  -7.8247416  39.0487584  19.0972584  -8.7187416  38.8077584
  35.6262584 -20.2487416  28.3917584  35.5692584 -21.1727416  28.6357584
  35.5722584 -19.7777416  29.2237584  24.1562584  -4.9517416  33.2497584
  24.0002584  -4.0287416  33.4507584  25.0562584  -4.9777416  32.9257584
  34.1232584  -9.6577416  12.4807584  34.1142584  -9.0827416  13.2467584
  34.8272584 -10.2817416  12.6557584  23.0272584 -18.2547416  12.1127584
  23.5862584 -19.0307416  12.0747584  22.6822584 -18.1637416  11.2247584
   8.0682584 -18.1477416  34.5797584   7.7492584 -19.0247416  34.3687584
   8.8312584 -18.0267416  34.0137584  21.0862584  -1.8457416  27.8697584
  21.0132584  -1.0407416  27.3567584  21.8982584  -2.2517416  27.5647584
  17.7122584 -14.3877416  26.5467584  17.7372584 -15.2417416  26.9787584
  17.3342584 -14.5657416  25.6857584  22.7512584 -17.3767416  36.7347584
  22.0562584 -16.7187416  36.7457584  22.9842584 -17.4647416  35.8107584
  16.5712584 -13.4817416  38.8767584  15.9952584 -13.3887416  38.1177584
  17.3802584 -13.0397416  38.6197584  15.1402584 -14.4687416  30.3557584
  15.1172584 -15.4247416  30.3287584  15.9802584 -14.2597416  30.7657584
  25.6222584   7.8302584  38.9487584  25.1362584   7.0122584  38.8457584
  25.9232584   7.8182584  39.8577584   8.3152584 -15.5117416  20.2607584
   7.8422584 -15.2447416  19.4727584   9.1142584 -14.9847416  20.2517584
   9.3612584 -16.8887416  22.7097584   8.8852584 -16.5477416  21.9527584
   9.0372584 -16.3747416  23.4487584  35.2462584   4.3242584  22.8247584
  35.4422584   5.1652584  23.2377584  34.2922584   4.3122584  22.7447584
  21.0532584 -14.8267416  13.0897584  20.2612584 -14.3637416  12.8137584
  20.7442584 -15.4717416  13.7257584  20.2842584 -16.4397416  15.2837584
  20.8762584 -16.4487416  16.0357584  19.5912584 -17.0577416  15.5167584
  37.2022584   0.3762584  40.4757584  36.5072584   0.4542584  41.1297584
  37.1372584  -0.5247416  40.1617584  31.5122584   3.1502584  24.7257584
  32.0902584   2.4172584  24.5177584  31.7422584   3.8262584  24.0877584
  13.0452584   5.8222584  40.5587584  12.4492584   5.9852584  39.8267584
  12.5552584   5.2432584  41.1427584  23.6302584  -2.4987416  31.8627584
  23.6972584  -3.2097416  31.2257584  22.8872584  -1.9757416  31.5617584
  16.3602584 -16.1277416  16.3677584  16.0442584 -15.8947416  15.4947584
  16.6122584 -17.0477416  16.2947584  17.3572584  -7.2297416  28.5527584
  16.8992584  -8.0667416  28.4727584  18.1302584  -7.3247416  27.9967584
  20.0492584 -19.5137416  20.2277584  20.8272584 -20.0097416  20.4837584
  19.8322584 -18.9917416  20.9997584  14.8712584  -5.9287416  28.8467584
  14.5742584  -5.9597416  29.7557584  15.6482584  -6.4877416  28.8277584
  27.2792584 -18.5337416  12.0377584  27.6262584 -19.2177416  11.4647584
  26.4182584 -18.8577416  12.3027584  35.3702584 -19.1437416  30.7707584
  34.5682584 -19.3567416  31.2487584  35.6222584 -18.2797416  31.0957584
   8.1852584 -21.5707416  36.3567584   8.9702584 -21.4997416  35.8137584
   8.4352584 -21.1767416  37.1927584  17.6262584 -20.1217416  26.3417584
  17.7922584 -20.0937416  27.2847584  17.9012584 -19.2617416  26.0247584
  18.5022584  -2.3457416  35.9597584  19.2332584  -2.2347416  35.3517584
  18.6732584  -1.7137416  36.6577584  33.5312584 -13.0447416  25.3267584
  33.1252584 -12.1777416  25.3467584  32.7932584 -13.6547416  25.3197584
  19.6772584   4.4542584  39.8537584  19.3522584   4.4102584  40.7527584
  18.8942584   4.5962584  39.3217584  20.8372584 -21.1227416  12.4667584
  20.0562584 -21.3457416  11.9607584  20.8422584 -20.1657416  12.4927584
  10.3672584 -20.9827416  15.1937584  11.3222584 -20.9157416  15.1877584
  10.0712584 -20.1577416  15.5777584  36.0482584   2.3472584  21.0817584
  35.3262584   1.7242584  20.9917584  35.7392584   2.9812584  21.7287584
  16.9992584  -5.6897416  32.4137584  16.0892584  -5.4147416  32.5217584
  16.9422584  -6.5987416  32.1197584  32.6572584   3.6052584  19.2027584
  31.7702584   3.8532584  18.9437584  33.0942584   3.3842584  18.3797584
  31.6692584  -0.7377416  29.6437584  32.5132584  -0.4737416  29.2767584
  31.8952584  -1.3297416  30.3617584  15.4342584  -1.8407416  35.8827584
  15.2412584  -2.3807416  36.6497584  16.3892584  -1.8417416  35.8227584
  20.1442584 -20.2607416  23.1547584  20.7672584 -20.9607416  23.3517584
  19.3002584 -20.6017416  23.4497584  37.0362584   5.3302584  19.5687584
  36.4302584   4.6322584  19.3157584  37.6252584   4.9182584  20.2007584
  36.0122584   7.3972584  30.1677584  36.5432584   7.2322584  30.9467584
  35.1102584   7.2732584  30.4617584  14.3932584 -19.3807416  30.4167584
  14.9452584 -20.1467416  30.2597584  13.6422584 -19.7217416  30.9037584
  18.6372584  -5.7017416  34.5637584  19.2812584  -5.1767416  34.0877584
  17.9792584  -5.9277416  33.9067584  21.6942584  -8.7137416  16.4917584
  21.5662584  -8.8917416  17.4237584  20.8112584  -8.7247416  16.1217584
  26.2192584  -6.8677416  16.2257584  26.3722584  -6.0247416  16.6517584
  26.0152584  -7.4657416  16.9447584  16.9632584   1.0352584  37.2997584
  16.4762584   1.0732584  36.4757584  16.9262584   1.9282584  37.6417584
  34.5462584 -21.2557416  23.4527584  34.7032584 -21.8927416  24.1497584
  35.1302584 -20.5257416  23.6587584  31.8562584  -1.9907416  23.1047584
  32.0982584  -2.6997416  23.6997584  31.3842584  -2.4247416  22.3937584
  32.4132584  -6.6997416  11.9727584  32.5112584  -7.4797416  11.4257584
  31.6302584  -6.2647416  11.6317584  15.5512584 -17.3877416  12.4797584
  15.6422584 -16.7447416  13.1827584  14.7302584 -17.8417416  12.6737584
  24.5812584   0.7982584  38.0457584  24.8322584   1.3072584  38.8167584
  25.3142584   0.9052584  37.4387584  33.1172584   1.1952584  23.8237584
  32.9212584   1.1782584  22.8867584  33.2752584   0.2802584  24.0537584
  29.5592584  -6.9357416  19.3077584  28.9332584  -6.8997416  20.0307584
  30.3312584  -6.4737416  19.6357584  10.6342584 -15.3847416  12.5247584
  11.1962584 -14.7177416  12.1297584  11.1692584 -15.7667416  13.2207584
  24.2052584   2.0322584  10.7187584  24.6602584   2.8022584  11.0597584
  23.3342584   2.3522584  10.4827584  14.3882584   0.9092584  38.7327584
  13.8012584   0.7992584  37.9847584  15.2672584   0.8342584  38.3597584
  25.4522584  -8.9677416  18.0557584  24.9002584  -9.5957416  17.5897584
  24.8522584  -8.5157416  18.6487584   7.3302584 -18.0067416  16.4567584
   7.1852584 -18.9207416  16.2147584   7.2662584 -17.9987416  17.4117584
  22.5332584  -0.7127416  38.7537584  21.9012584  -0.0367416  38.5117584
  23.3732584  -0.3817416  38.4337584  27.0972584 -21.2747416  36.9347584
  26.5002584 -21.5127416  37.6437584  27.4892584 -20.4487416  37.2177584
  33.5692584   1.5822584  32.7667584  33.1002584   2.2752584  32.3027584
  34.4352584   1.5642584  32.3597584  15.8892584 -16.6297416  36.8387584
  15.7592584 -16.7307416  37.7817584  15.1602584 -16.0787416  36.5527584
  12.2482584 -20.5657416  38.2367584  12.4302584 -19.7567416  37.7597584
  12.1172584 -21.2227416  37.5527584  19.8092584   0.4832584  35.1467584
  19.9062584   0.2042584  36.0577584  20.3332584  -0.1427416  34.6467584
  14.1882584  -5.5707416  31.3537584  13.6142584  -5.8287416  32.0757584
  14.1872584  -4.6137416  31.3777584  20.7312584  -4.5687416  32.9657584
  21.2942584  -5.1787416  33.4427584  20.6222584  -4.9677416  32.1027584
  20.6762584  -2.0857416  34.1437584  20.7952584  -2.8947416  33.6457584
  21.3892584  -2.0887416  34.7817584  30.5342584   3.8022584  36.8887584
  31.0672584   4.2192584  36.2107584  29.8372584   4.4332584  37.0667584
  28.2932584   5.6312584  36.8977584  27.9452584   5.7732584  36.0177584
  28.5432584   6.5042584  37.2007584  15.6532584 -19.0117416  35.5487584
  15.2852584 -19.7537416  36.0277584  15.6622584 -18.2967416  36.1847584
  31.7142584  -4.5647416  33.0087584  32.3142584  -5.2587416  33.2817584
  30.8862584  -4.7787416  33.4377584  18.8912584  -1.4867416  40.3927584
  18.0032584  -1.6667416  40.0837584  19.2022584  -2.3247416  40.7327584
  14.9942584  -3.9587416  37.5857584  15.1442584  -3.4727416  38.3967584
  15.8642584  -4.2527416  37.3167584  21.8872584   6.0352584  40.0737584
  20.9892584   5.7952584  40.3007584  21.7962584   6.6272584  39.3267584
  15.2052584   4.0472584  39.7287584  14.5402584   4.4322584  40.2997584
  14.7622584   3.9302584  38.8887584  33.9642584 -17.9007416  33.3467584
  33.9662584 -18.7287416  33.8267584  34.5482584 -17.3317416  33.8467584
  12.6792584  -4.5377416  36.0787584  12.5702584  -5.4447416  36.3667584
  13.5372584  -4.2807416  36.4167584  17.1122584 -18.0117416  32.4437584
  16.3082584 -18.1047416  32.9547584  17.7022584 -18.6757416  32.7997584
  18.5312584   7.3862584  38.5177584  17.5812584   7.3802584  38.3997584
  18.8842584   7.2312584  37.6417584  15.6772584  -8.9087416  23.3947584
  15.9512584  -8.3547416  22.6647584  16.4422584  -9.4527416  23.5837584
  18.0382584 -19.3747416  38.7487584  17.1582584 -19.5737416  38.4287584
  17.9142584 -19.1557416  39.6717584  19.3542584  -0.4717416  37.7917584
  18.5472584   0.0232584  37.6477584  19.6322584  -0.2257416  38.6737584
  33.6942584   1.8442584  14.5097584  34.4612584   1.7302584  13.9487584
  33.3462584   2.7022584  14.2687584  23.0722584 -19.4617416  32.3187584
  22.7082584 -19.6097416  33.1917584  23.9762584 -19.7697416  32.3807584
  26.5342584  -2.1667416  30.9567584  26.2222584  -2.4537416  30.0987584
  25.7372584  -1.9777416  31.4517584  21.7282584 -18.2087416  39.3567584
  21.3652584 -19.0777416  39.1807584  22.2472584 -18.0047416  38.5787584
  24.2952584  -5.8407416  36.5267584  24.9682584  -5.1607416  36.4847584
  23.4872584  -5.3667416  36.7217584  20.2582584 -20.0117416  30.6197584
  21.1582584 -19.9617416  30.9427584  20.1332584 -20.9347416  30.3997584
  15.4462584 -20.2987416  38.7627584  14.7892584 -20.1577416  39.4447584
  15.3822584 -21.2327416  38.5587584  25.6802584 -13.5377416  12.2267584
  26.3932584 -13.1837416  12.7577584  25.2442584 -12.7657416  11.8647584
  22.3252584  -4.3047416  37.0157584  22.4342584  -3.8737416  37.8637584
  21.7382584  -5.0387416  37.1937584  32.2872584 -18.5527416  36.0237584
  31.9532584 -18.8717416  35.1857584  32.8302584 -19.2687416  36.3537584
  16.2792584 -20.3897416  11.7947584  15.5952584 -21.0597416  11.7707584
  15.8662584 -19.6117416  11.4217584  20.0262584  -4.7047416  24.4847584
  19.6582584  -5.5847416  24.5567584  19.3872584  -4.2197416  23.9617584
  15.6162584   7.0212584  38.4167584  15.2902584   6.4372584  37.7317584
  15.2142584   6.6942584  39.2217584  20.3152584  -6.3307416  36.9787584
  20.1932584  -7.2797416  36.9557584  20.3962584  -6.0777416  36.0587584
  12.6952584 -21.3897416  31.5167584  12.3452584 -20.7627416  32.1497584
  12.5572584 -22.2447416  31.9257584  19.4362584 -15.2197416  18.4967584
  20.2572584 -15.6467416  18.2537584  18.7702584 -15.6637416  17.9717584
  17.9672584 -15.3547416  40.5857584  18.3142584 -14.6767416  41.1647584
  17.3472584 -14.8937416  40.0197584  32.1542584  -6.4487416  17.0347584
  31.2652584  -6.2217416  16.7607584  32.6852584  -5.6957416  16.7767584
  26.5702584 -14.0197416  23.4117584  26.7572584 -13.5867416  22.5787584
  26.1732584 -13.3377416  23.9537584  37.1322584  -8.6327416  30.7767584
  36.4342584  -8.0167416  30.5527584  36.7422584  -9.4957416  30.6377584
  30.6302584 -13.4657416  25.2197584  30.2562584 -13.0977416  24.4187584
  30.2642584 -14.3487416  25.2717584  34.6722584 -17.5717416  21.2727584
  34.5302584 -17.2717416  20.3757584  34.9072584 -18.4957416  21.1837584
  31.0352584 -13.6547416  21.7527584  30.4582584 -13.0807416  21.2497584
  31.6962584 -13.9417416  21.1227584  31.3332584 -20.2157416  21.5617584
  30.4172584 -20.0967416  21.8117584  31.3032584 -20.8237416  20.8237584
  30.0182584   0.2802584  40.5217584  30.3032584  -0.4047416  41.1277584
  30.5912584   0.1802584  39.7617584   7.2542584 -14.8377416  28.2027584
   7.9722584 -14.2337416  28.3917584   6.9112584 -14.5447416  27.3587584
  26.5812584  -9.5417416  12.3277584  25.6382584  -9.4467416  12.1927584
  26.7542584 -10.4687416  12.1607584  25.8162584 -16.6757416  23.1277584
  26.3862584 -17.0827416  22.4747584  26.1902584 -15.8047416  23.2637584
  35.4142584   1.7572584  25.4877584  34.7572584   1.8872584  24.8047584
  36.2292584   1.5992584  25.0097584  34.9542584 -18.7807416  14.5687584
  35.4092584 -19.5477416  14.2207584  34.2342584 -18.6307416  13.9567584
  23.0632584 -14.5487416  11.2797584  22.3962584 -14.7137416  11.9467584
  23.6502584 -13.9087416  11.6807584  26.7272584  -4.3257416  37.2657584
  27.4852584  -4.6927416  36.8107584  26.7312584  -4.7537416  38.1217584
  33.1332584 -16.1297416  25.3877584  33.3522584 -15.7267416  24.5477584
  32.9562584 -17.0457416  25.1757584  32.6442584 -14.5957416  16.1187584
  32.0792584 -15.3587416  15.9977584  32.9572584 -14.3867416  15.2377584
  21.9912584 -10.3067416  31.1147584  21.3142584  -9.8337416  30.6307584
  22.5712584  -9.6207416  31.4477584  23.9012584 -14.5597416  14.5057584
  24.3902584 -14.0507416  13.8587584  23.9782584 -15.4657416  14.2057584
  12.8092584 -17.6497416  28.5817584  13.3232584 -18.1507416  29.2137584
  12.3032584 -18.3097416  28.1067584  32.4902584 -15.9487416  30.3587584
  33.3652584 -16.2837416  30.1627584  32.1152584 -15.7417416  29.5027584
  17.7012584 -14.4307416  31.5337584  18.5412584 -14.7727416  31.2257584
  17.8222584 -14.3107416  32.4757584  12.6242584 -12.6407416  23.9657584
  11.7382584 -12.7217416  24.3177584  12.6002584 -11.8427416  23.4367584
  36.7262584 -20.8657416  13.9957584  37.3892584 -20.8027416  13.3087584
  36.3362584 -21.7317416  13.8737584  26.3142584 -10.2447416  24.4557584
  25.9242584 -10.1667416  23.5847584  25.9562584  -9.5057416  24.9467584
  30.6442584  -4.9517416  28.5397584  30.2032584  -4.3197416  27.9717584
  30.0362584  -5.0857416  29.2667584   7.7522584 -18.1287416  12.7257584
   8.0972584 -17.6237416  11.9897584   6.8132584 -18.1957416  12.5517584
  32.6462584   1.4352584  16.9667584  33.3572584   1.0262584  17.4607584
  33.0192584   1.5992584  16.1007584  27.0222584  -9.4037416  15.4597584
  27.4812584  -9.2437416  16.2837584  26.7482584  -8.5357416  15.1647584
  25.2102584 -14.5587416  37.8387584  24.5192584 -15.0047416  38.3277584
  25.2932584 -15.0607416  37.0277584  32.7542584 -10.4337416  26.0947584
  32.3122584 -10.9687416  26.7537584  32.0522584  -9.9237416  25.6897584
  33.9362584 -17.9517416  28.4817584  33.6592584 -17.4827416  27.6947584
  33.2402584 -18.5887416  28.6397584  27.0892584 -13.7827416  39.8537584
  26.6492584 -14.0477416  39.0457584  26.4672584 -13.9967416  40.5477584
  36.4112584   2.2002584  16.4577584  36.5592584   2.7532584  15.6907584
  36.6242584   1.3152584  16.1607584  28.4602584 -20.8097416  19.2027584
  28.5932584 -20.4657416  20.0857584  27.7852584 -21.4807416  19.3067584
  31.3772584 -17.1357416  39.8947584  31.1132584 -16.5437416  39.1907584
  30.6282584 -17.1477416  40.4917584  34.2142584 -20.9507416  33.9757584
  33.3052584 -21.1927416  33.7967584  34.6522584 -21.7817416  34.1597584
  34.2482584  -1.2147416  24.1527584  33.3992584  -1.4997416  23.8157584
  34.6262584  -2.0007416  24.5467584  30.5562584 -16.5207416  22.4347584
  30.9582584 -15.6847416  22.1967584  31.2972584 -17.1007416  22.6127584
  32.1692584 -20.5367416  30.7327584  31.8662584 -20.1687416  29.9027584
  31.6692584 -20.0677416  31.4007584  29.7252584   2.3472584  26.8887584
  30.5132584   2.2602584  27.4247584  30.0522584   2.5012584  26.0027584
  33.5152584 -14.0727416  34.5617584  33.4952584 -14.8127416  35.1677584
  34.2982584 -13.5807416  34.8097584  23.8472584 -11.9967416  17.7197584
  23.4792584 -12.4637416  16.9687584  24.7512584 -12.3047416  17.7747584
  30.4352584   1.6002584  21.1117584  30.1642584   2.1592584  20.3827584
  29.7442584   0.9412584  21.1767584   7.2242584 -15.2307416  17.9087584
   6.6462584 -15.6717416  17.2847584   7.9022584 -14.8287416  17.3647584
  12.6042584 -19.9267416  24.7207584  13.5462584 -20.0197416  24.5737584
  12.3132584 -19.3207416  24.0397584  28.1722584 -10.2147416  38.7237584
  28.6782584 -10.8267416  39.2577584  28.6652584 -10.1457416  37.9057584
  19.2342584 -17.7767416  10.9287584  18.6422584 -17.0537416  10.7217584
  19.9092584 -17.7357416  10.2507584  31.6532584 -19.4787416  28.1857584
  31.8912584 -19.3817416  27.2637584  31.1132584 -20.2687416  28.2127584
  15.7432584 -17.1667416  30.0477584  16.3502584 -17.4697416  30.7237584
  15.0082584 -17.7787416  30.0947584  34.8672584 -14.3357416  39.1127584
  35.3862584 -13.5617416  38.8927584  34.7072584 -14.7657416  38.2727584
  28.4272584 -19.8357416  21.6697584  28.2502584 -19.8177416  22.6097584
  28.2912584 -18.9327416  21.3827584  29.3102584 -15.3417416  27.0807584
  28.7692584 -14.7477416  27.6007584  28.8742584 -15.3817416  26.2297584
  24.2392584 -11.7887416  40.7147584  24.1262584 -10.8517416  40.8697584
  24.5532584 -11.8467416  39.8117584  28.7652584  -5.4777416  30.0807584
  28.4522584  -5.0107416  30.8547584  29.2212584  -6.2437416  30.4297584
  31.7822584  -8.7617416  28.6787584  32.5242584  -9.2737416  28.3557584
  32.1822584  -8.0467416  29.1747584   9.8892584 -17.4757416  32.4907584
   9.4992584 -17.9787416  31.7757584  10.1932584 -16.6677416  32.0757584
  37.0602584   0.9192584  34.3387584  37.7132584   0.4452584  33.8247584
  36.3162584   1.0232584  33.7447584  37.2252584 -12.2097416  17.9667584
  36.2892584 -12.3117416  18.1387584  37.3652584 -12.6547416  17.1317584
  19.3332584 -14.1097416  22.8417584  20.2732584 -14.1347416  22.6627584
  19.1602584 -14.9157416  23.3277584  29.4502584  -9.2037416  22.1027584
  28.9452584  -8.4117416  21.9187584  29.4012584  -9.7127416  21.2937584
  35.1872584 -12.6307416  29.3327584  36.0782584 -12.7787416  29.6517584
  34.6352584 -13.1577416  29.9107584  33.1282584  -0.4667416  39.5557584
  32.6232584  -0.5477416  38.7477584  33.6302584   0.3412584  39.4457584
   9.8302584 -12.6387416  19.2537584  10.2532584 -12.4367416  20.0887584
   8.9642584 -12.2377416  19.3207584   9.1602584 -13.3137416  29.0467584
  10.0112584 -12.9097416  29.2147584   8.6022584 -13.0037416  29.7597584
  34.6972584 -15.6077416  23.2957584  34.8282584 -16.4327416  22.8277584
  34.6262584 -14.9487416  22.6047584  13.2592584 -18.0607416  13.9547584
  12.9062584 -17.1967416  14.1687584  12.5692584 -18.4797416  13.4397584
  27.3562584 -18.3167416  17.7937584  27.9822584 -18.8827416  18.2467584
  26.6222584 -18.2357416  18.4017584  13.0802584 -11.2847416  15.9837584
  12.8292584 -10.7287416  16.7217584  13.0662584 -10.6997416  15.2267584
  33.1982584   6.8852584  31.1967584  32.5812584   6.3032584  30.7517584
  32.8722584   7.7662584  31.0117584  29.3582584 -13.7977416  19.2547584
  30.2722584 -14.0817416  19.2227584  29.3212584 -13.0417416  18.6687584
  31.5802584 -10.6677416  17.8577584  31.8882584 -10.2207416  18.6457584
  32.2922584 -10.5597416  17.2267584  34.3042584 -13.6427416  21.3787584
  33.8632584 -12.9057416  21.8017584  34.4792584 -13.3377416  20.4877584
  31.6242584 -13.3327416  10.7857584  32.1932584 -12.7327416  10.3037584
  32.1432584 -13.5967416  11.5457584  34.8582584  -3.7317416  31.0537584
  34.2032584  -3.6447416  31.7467584  34.9862584  -2.8397416  30.7307584
  27.6392584 -15.8407416  16.5707584  27.8832584 -16.6267416  17.0587584
  28.4742584 -15.4657416  16.2877584  11.2922584  -4.3317416  31.5237584
  10.7512584  -3.9357416  30.8407584  11.9782584  -3.6847416  31.6917584
  22.2642584 -18.4557416  22.5927584  23.1242584 -18.8637416  22.4897584
  21.7702584 -19.0697416  23.1367584   8.4482584 -14.7547416  24.7827584
   7.5602584 -14.8277416  25.1297584   8.7412584 -13.8847416  25.0527584
  18.0442584  -3.5227416  31.1837584  18.7102584  -3.6887416  30.5167584
  17.8862584  -4.3777416  31.5837584  32.5222584  -8.0627416  22.2007584
  32.2262584  -7.3347416  22.7467584  33.3122584  -8.3827416  22.6367584
  31.9812584 -19.4507416  16.5187584  31.3772584 -20.1937416  16.5317584
  32.8512584 -19.8497416  16.5237584  26.6112584  -6.3977416  26.7127584
  27.4262584  -6.8927416  26.6257584  26.8932584  -5.5117416  26.9407584
  34.9592584  -7.9667416  14.4667584  34.9322584  -7.7237416  15.3917584
  35.0942584  -7.1387416  14.0047584  30.0402584  -7.1817416  39.9057584
  30.2662584  -6.2717416  40.1007584  29.5332584  -7.1337416  39.0957584
  31.6982584 -17.7797416  18.9567584  31.8592584 -18.4397416  18.2827584
  32.5622584 -17.6027416  19.3307584  35.0852584  -5.6057416  12.4337584
  34.2562584  -6.0707416  12.3147584  35.4632584  -5.5617416  11.5557584
  28.6142584 -15.6067416  24.3457584  27.9382584 -15.1117416  23.8827584
  29.2322584 -15.8657416  23.6617584  25.1422584  -4.3907416  21.9157584
  25.0992584  -5.3267416  21.7187584  26.0112584  -4.2677416  22.2997584
  32.6742584  -9.6017416  20.0257584  32.3132584  -9.0537416  20.7227584
  33.4732584  -9.9717416  20.4007584  34.4312584 -16.5957416  18.6807584
  34.5842584 -15.6747416  18.8937584  34.7542584 -16.6907416  17.7847584
  31.3322584 -12.5947416  34.9957584  30.6562584 -13.1357416  34.5887584
  32.1142584 -13.1467416  34.9957584  30.0422584  -7.9937416  30.5797584
  30.7542584  -8.2947416  30.0147584  29.3002584  -8.5527416  30.3487584
  30.4522584 -21.0967416  24.8447584  30.8972584 -21.8037416  24.3777584
  31.1422584 -20.4607416  25.0317584  23.4552584 -15.9027416  22.4247584
  24.3492584 -16.2127416  22.5647584  22.9202584 -16.6957416  22.4457584
  32.4542584 -19.0437416  25.7697584  33.3532584 -19.3677416  25.8337584
  32.3062584 -18.9307416  24.8307584  33.2302584 -11.7957416  23.0407584
  33.5462584 -12.4637416  23.6497584  32.2932584 -11.7277416  23.2247584
  30.2142584 -13.1317416  14.1247584  30.4082584 -12.1957416  14.0697584
  30.6312584 -13.4157416  14.9387584  25.5902584 -19.7987416  15.1267584
  25.3652584 -20.5337416  15.6967584  26.5462584 -19.7587416  15.1537584
  35.1822584 -12.3527416  36.0387584  35.7732584 -12.3017416  36.7897584
  34.6692584 -11.5457416  36.0817584  36.6012584  -1.1007416  23.1027584
  35.7092584  -1.0927416  23.4497584  36.4892584  -1.1147416  22.1527584
  27.1032584 -13.1987416  20.6857584  27.1032584 -12.3147416  20.3187584
  27.8072584 -13.6507416  20.2227584  29.8852584 -10.1957416  36.7717584
  29.9572584 -11.0097416  36.2727584  30.7772584 -10.0177416  37.0707584
  29.5362584  -3.7427416  24.3477584  29.6722584  -3.0087416  24.9457584
  28.6892584  -3.5657416  23.9377584  25.7472584  -2.6397416  35.3017584
  25.9872584  -3.2657416  35.9857584  26.5462584  -2.1377416  35.1447584
  25.7382584 -15.3307416  19.5657584  25.8802584 -15.2607416  18.6217584
  26.0522584 -14.4987416  19.9187584  24.7762584 -19.4487416  22.3187584
  24.7292584 -19.6407416  23.2557584  24.6352584 -20.2937416  21.8937584
  30.2812584 -15.5207416  12.9057584  30.3112584 -14.6027416  13.1747584
  29.7702584 -15.5177416  12.0967584  26.6232584   7.4522584  11.4887584
  27.5802584   7.4442584  11.4827584  26.3832584   6.9322584  12.2557584
  30.2862584 -16.9847416  37.2367584  30.9862584 -17.4127416  36.7447584
  29.6492584 -16.7247416  36.5717584  36.5962584  -0.2627416  27.4227584
  36.3122584   0.5492584  27.0027584  37.4852584  -0.0777416  27.7247584
  37.1932584 -18.2537416  19.3547584  36.4812584 -18.8787416  19.4917584
  36.8172584 -17.4057416  19.5887584  15.1162584 -20.6367416  17.6807584
  15.5792584 -20.1617416  18.3707584  14.8052584 -19.9537416  17.0867584
  33.2562584 -15.3637416  13.4927584  33.9692584 -15.0897416  12.9157584
  32.6692584 -15.8647416  12.9267584  32.6052584  -0.7507416  12.1517584
  32.6932584  -0.5657416  11.2167584  33.4172584  -1.2007416  12.3847584
  35.5592584 -16.0987416  29.9207584  35.9972584 -15.5727416  29.2517584
  35.2532584 -16.8757416  29.4527584  20.8992584 -20.7577416  39.4137584
  20.0022584 -20.8907416  39.7187584  21.4382584 -20.8737416  40.1967584
  28.1352584 -17.1817416  28.3747584  27.7752584 -17.6597416  27.6277584
  28.7172584 -16.5297416  27.9837584  26.7452584  -8.1107416  39.9397584
  26.8142584  -8.6327416  40.7397584  27.1322584  -8.6617416  39.2597584
  36.5982584 -11.7887416  11.8357584  36.9762584 -11.9487416  10.9717584
  36.0812584 -12.5737416  12.0207584  31.0072584  -4.7767416  40.3337584
  30.9702584  -4.1837416  41.0837584  31.8482584  -4.5867416  39.9177584
   9.7962584  -5.1807416  38.2247584   9.5622584  -5.5237416  37.3627584
  10.7282584  -5.3807416  38.3177584  28.6132584  -8.3587416  34.8737584
  28.8142584  -9.2247416  35.2297584  28.4722584  -8.5097416  33.9397584
  31.5772584  -5.1147416  37.1397584  31.6922584  -4.2287416  36.7977584
  31.2312584  -4.9877416  38.0237584  36.3692584 -11.1877416  33.1047584
  35.4772584 -10.9777416  32.8277584  36.2872584 -11.4037416  34.0337584
  34.7092584  -9.9167416  29.4467584  34.7782584 -10.8697416  29.3867584
  34.7982584  -9.7277416  30.3807584  35.3122584  -8.4897416  34.6037584
  35.9552584  -8.8897416  35.1907584  34.6462584  -8.1287416  35.1887584
   8.1692584  -7.6427416  37.4157584   8.4712584  -7.5557416  38.3197584
   8.9372584  -7.9507416  36.9347584  31.3062584 -19.8307416  38.7347584
  31.9742584 -20.1357416  38.1207584  31.5992584 -18.9567416  38.9927584
  28.9572584  -8.2047416  13.0037584  28.9672584  -7.8587416  12.1117584
  28.1492584  -8.7157416  13.0537584   7.8762584 -17.0847416  37.1997584
   8.0152584 -17.2307416  36.2647584   8.0702584 -16.1567416  37.3297584
  35.2242584   4.2042584  10.8207584  34.8452584   4.8182584  10.1907584
  35.9842584   4.6652584  11.1757584  10.1102584 -11.3097416  33.5397584
   9.5192584 -10.7417416  33.0447584  10.6932584 -10.7057416  33.9997584
  28.3872584 -16.5657416  35.0277584  27.5432584 -16.3017416  35.3927584
  28.4492584 -17.5017416  35.2177584  33.7372584 -15.9867416  36.5587584
  33.0142584 -16.5997416  36.4257584  34.5162584 -16.4717416  36.2857584
  35.9532584   6.6182584  13.6677584  36.0692584   5.7192584  13.9757584
  36.6712584   6.7562584  13.0507584   9.8422584 -14.4937416  33.9497584
  10.1092584 -13.6817416  33.5177584   9.2972584 -14.9417416  33.3017584
  29.6262584   2.9052584  11.4387584  28.8502584   2.8332584  11.9947584
  29.6992584   2.0492584  11.0167584  34.2022584 -13.8117416  31.5297584
  34.3572584 -13.9987416  32.4557584  33.3682584 -14.2407416  31.3357584
  12.3762584  -6.3207416  39.3507584  12.4432584  -6.9197416  38.6077584
  13.2842584  -6.1487416  39.6017584  34.1332584 -10.9947416  16.1677584
  34.4902584 -10.1297416  16.3657584  34.7362584 -11.3607416  15.5197584
  29.3802584 -14.2167416  33.8537584  29.8262584 -14.3357416  33.0157584
  29.1782584 -15.1057416  34.1467584  33.2762584  -6.5897416  33.5317584
  34.0232584  -6.9967416  33.0927584  33.3612584  -6.8567416  34.4467584
   8.9072584 -16.8177416  14.8467584   8.5862584 -17.2347416  14.0467584
   8.2792584 -17.0767416  15.5207584  31.4492584   1.9772584  28.9877584
  31.4692584   1.1912584  29.5347584  32.3422584   2.0582584  28.6517584
  34.6022584   6.4782584  38.9777584  34.0592584   7.0092584  39.5617584
  35.2622584   7.0872584  38.6457584  31.3692584  -3.0567416  12.3857584
  31.7272584  -2.1917416  12.1847584  32.0212584  -3.4587416  12.9607584
  32.4382584  -6.4297416  29.8587584  31.8742584  -6.2257416  30.6057584
  32.2212584  -5.7647416  29.2057584  35.0822584 -18.6267416  11.4087584
  34.3322584 -19.1997416  11.5697584  34.7642584 -17.7497416  11.6197584
  24.7822584 -15.6207416  32.4847584  25.1202584 -16.5147416  32.5347584
  25.4332584 -15.1457416  31.9677584  25.8262584 -17.7727416  38.3187584
  26.6392584 -18.2707416  38.2337584  25.7792584 -17.5457416  39.2477584
  36.4112584  -9.8557416  36.9007584  36.5792584 -10.4117416  37.6617584
  36.7692584  -9.0017416  37.1437584  27.2612584 -14.9637416  31.2967584
  27.6042584 -15.8257416  31.0617584  28.0402584 -14.4287416  31.4487584
  36.6072584 -18.3997416  26.6917584  36.4302584 -19.1807416  27.2167584
  36.1002584 -17.7067416  27.1157584  33.3352584  -9.1677416  38.2467584
  32.6262584  -9.3327416  38.8677584  34.0962584  -8.9777416  38.7947584
  25.0732584 -13.9407416  34.7417584  24.9512584 -14.8897416  34.7117584
  24.2092584 -13.5947416  34.9677584  28.7572584  -5.8827416  36.0397584
  29.4352584  -6.0627416  36.6907584  28.5802584  -6.7327416  35.6357584
  37.0432584 -18.9717416  39.3277584  36.5052584 -18.6417416  40.0467584
  36.9132584 -18.3397416  38.6207584  31.1942584 -16.8587416  15.6907584
  31.0782584 -17.0427416  14.7587584  31.4412584 -17.7007416  16.0727584
  35.8912584 -16.5847416  34.5927584  36.4222584 -15.9007416  35.0017584
  36.4642584 -17.3507416  34.5677584   9.7102584 -17.7747416  39.6137584
   9.5332584 -16.8357416  39.6567584   9.1982584 -18.0827416  38.8657584
  17.0832584  -9.7597416  27.7987584  17.3942584 -10.3417416  28.4917584
  17.3162584 -10.2097416  26.9857584   9.4472584  -5.6037416  35.3317584
   8.6862584  -6.0967416  35.0267584  10.2002584  -6.1137416  35.0327584
  27.3292584  -5.3457416  39.5977584  27.1152584  -6.2607416  39.4187584
  27.7702584  -5.3637416  40.4477584  27.1962584 -12.3617416  34.0287584
  27.9942584 -12.8897416  34.0757584  26.4972584 -12.9607416  34.2927584
  30.7992584  -8.8447416  24.8127584  30.5002584  -8.9377416  23.9087584
  31.0592584  -7.9267416  24.8867584  29.1202584  -3.1067416  38.0437584
  28.8792584  -2.3477416  38.5747584  28.3992584  -3.7247416  38.1657584
  27.8532584  -0.9117416  39.1727584  28.0002584  -0.6327416  40.0757584
  27.7582584  -0.0957416  38.6807584  30.2902584 -14.4717416  31.3517584
  30.7652584 -13.7757416  30.8977584  30.7762584 -15.2697416  31.1417584
   7.3142584 -14.3917416  35.6557584   8.1942584 -14.2577416  35.3017584
   6.8712584 -13.5537416  35.5207584  28.4762584 -17.3527416  20.8567584
  29.3642584 -17.1347416  21.1397584  28.1502584 -16.5487416  20.4507584
  12.4712584 -10.0097416  18.1677584  12.0382584 -10.6427416  18.7417584
  12.7682584  -9.3167416  18.7567584  13.2452584 -15.5267416  23.6097584
  13.9552584 -15.6397416  22.9777584  13.1732584 -14.5797416  23.7237584
  33.0712584  -7.3467416  36.0017584  33.1132584  -7.9687416  36.7287584
  32.5472584  -6.6207416  36.3387584  34.1622584   4.5572584  32.7947584
  35.0842584   4.6482584  33.0387584  33.9992584   5.2862584  32.1967584
   7.7022584 -11.7997416  24.5177584   7.0202584 -11.7847416  25.1897584
   7.4182584 -12.4767416  23.9027584  29.2002584  -7.6187416  26.7377584
  29.8412584  -8.1867416  26.3097584  29.6832584  -7.2147416  27.4587584
  28.5442584   2.0182584  37.7747584  29.2452584   2.5722584  37.4307584
  28.0132584   2.6072584  38.3097584  31.3072584 -17.8497416  31.7427584
  31.7812584 -17.0897416  31.4037584  31.7352584 -18.0467416  32.5757584
   7.0672584 -12.3377416  38.0697584   7.6332584 -12.0687416  37.3457584
   7.6462584 -12.8167416  38.6627584  20.9352584 -15.1127416  26.2587584
  21.4382584 -14.7177416  25.5467584  20.6212584 -14.3677416  26.7717584
  35.3812584  -9.0487416  39.9687584  36.2312584  -8.6097416  39.9647584
  35.3982584  -9.5977416  40.7527584  11.1072584  -7.2497416  30.7157584
  10.5172584  -6.5197416  30.9007584  11.0632584  -7.3587416  29.7657584
  26.5462584 -12.4707416  30.5847584  26.1632584 -11.6677416  30.9377584
  26.3052584 -13.1497416  31.2157584  24.4092584 -19.3237416  24.8827584
  24.6502584 -19.8817416  25.6227584  24.1892584 -18.4807416  25.2797584
  12.6542584  -7.2487416  36.7567584  12.0442584  -7.8837416  36.3797584
  13.4612584  -7.7437416  36.8937584  13.3692584 -17.9197416  34.4807584
  14.2252584 -18.1317416  34.8537584  12.8202584 -17.7207416  35.2387584
   7.8442584  -7.4417416  34.1447584   6.9052584  -7.6177416  34.2007584
   8.1742584  -8.0947416  33.5277584   9.2472584  -9.0607416  32.2917584
   9.9712584  -8.5167416  31.9827584   8.5122584  -8.8267416  31.7257584
  34.6672584 -13.2697416  17.9967584  34.2722584 -12.5097416  17.5687584
  34.6462584 -13.9567416  17.3307584  11.8322584 -13.3597416  10.9807584
  11.7432584 -12.4237416  11.1597584  12.7732584 -13.5257416  11.0357584
  10.7722584 -16.2717416  25.3427584  11.4802584 -15.8187416  24.8837584
  10.0402584 -15.6547416  25.3237584  21.5612584 -12.9707416  31.1107584
  21.6202584 -12.0187416  31.1877584  21.5912584 -13.1377416  30.1687584
  26.8332584  -4.5027416  32.2857584  27.4682584  -4.3077416  32.9747584
  26.6002584  -3.6477416  31.9237584  34.3282584  -9.1837416  32.0517584
  33.5472584  -9.6707416  32.3147584  34.8982584  -9.2097416  32.8197584
   8.9032584 -17.0067416  27.9817584   8.4612584 -17.4527416  27.2587584
   8.2742584 -16.3487416  28.2777584  10.9792584 -18.4267416  16.1607584
  11.9332584 -18.3497416  16.1937584  10.6962584 -17.6817416  15.6307584
  29.5032584 -11.2097416  32.3837584  28.9142584 -10.4597416  32.2937584
  28.9562584 -11.8997416  32.7607584  35.8062584  -1.0127416  31.0007584
  36.3962584  -0.7027416  31.6867584  35.7002584  -0.2617416  30.4167584
  25.7092584   4.1352584  11.3367584  25.8062584   5.0372584  11.6427584
  26.3902584   4.0342584  10.6707584  31.5132584  -6.2477416  24.0527584
  30.9312584  -5.5187416  23.8397584  32.0752584  -5.9097416  24.7507584
  26.7472584 -21.5067416  27.8567584  27.0452584 -21.2167416  26.9947584
  25.8732584 -21.1287416  27.9487584  31.7712584   4.6182584  30.3877584
  32.5052584   4.1682584  29.9687584  30.9952584   4.2772584  29.9417584
  26.9712584   2.4322584  24.1797584  27.4712584   2.5752584  23.3757584
  27.5732584   1.9612584  24.7557584  23.4302584 -18.9727416  17.6557584
  23.6912584 -19.8487416  17.3727584  24.2502584 -18.5457416  17.9017584
  25.0482584 -17.9167416  19.4427584  25.2152584 -16.9867416  19.5987584
  24.8882584 -18.2817416  20.3127584  28.8922584 -21.5537416  30.0257584
  29.5042584 -21.7677416  29.3207584  28.1492584 -21.1447416  29.5817584
  34.3422584  -0.1507416  18.7457584  34.2102584   0.4332584  19.4927584
  33.5592584  -0.7007416  18.7287584  28.3072584 -19.4547416  15.3587584
  28.3042584 -18.9057416  16.1437584  28.7542584 -18.9257416  14.6977584
  29.2012584 -11.4257416  26.8397584  29.1762584 -11.2467416  25.8987584
  30.0812584 -11.7707416  26.9947584  23.8022584  -3.4747416  23.9747584
  23.9222584  -4.0647416  23.2307584  24.6402584  -3.0217416  24.0587584
  35.0572584  -4.1337416  19.9807584  34.9402584  -4.2677416  20.9207584
  35.5012584  -3.2877416  19.9127584  32.6952584   3.7892584  39.4057584
  33.5432584   3.3502584  39.3297584  32.2372584   3.5672584  38.5947584
  33.8682584  -4.0017416  24.1787584  33.4722584  -3.7817416  25.0227584
  34.0052584  -4.9487416  24.2187584  30.2372584   0.0602584  24.1107584
  29.7622584   0.0442584  23.2797584  31.1452584  -0.1257416  23.8717584
  32.4222584 -18.3187416  23.0297584  32.0492584 -18.9257416  22.3907584
  33.2782584 -18.0867416  22.6697584  31.3052584   0.2602584  14.3547584
  31.9502584   0.8832584  14.6887584  31.6302584   0.0192584  13.4877584
  32.5162584  -5.0457416  14.3497584  32.6232584  -5.7017416  13.6607584
  31.6822584  -5.2677416  14.7647584   8.4012584   2.8132584  39.5957584
   7.9452584   2.0232584  39.8847584   9.3122584   2.5392584  39.4877584
  32.8662584  -0.6757416  33.8697584  33.1312584   0.1272584  33.4217584
  32.2212584  -1.0747416  33.2867584  35.2652584  -6.5227416  24.7447584
  35.5212584  -7.4117416  24.5007584  35.8992584  -5.9597416  24.2987584
  28.6902584  -3.8887416  19.6107584  27.8802584  -3.6007416  20.0317584
  28.4002584  -4.3957416  18.8527584  27.1342584   4.3972584  38.9997584
  26.2482584   4.7532584  38.9367584  27.5752584   4.7092584  38.2097584
  29.9612584  -2.2537416  27.9987584  29.4942584  -1.5027416  27.6307584
  30.6192584  -1.8667416  28.5767584  30.8972584  -3.8177416  21.1327584
  31.3462584  -4.6317416  20.9057584  30.1462584  -3.7857416  20.5397584
  34.6642584   4.2702584  17.1267584  34.9512584   3.3672584  17.2567584
  34.5892584   4.3642584  16.1767584  34.3472584   3.6572584  29.4807584
  34.4242584   3.0252584  28.7667584  35.1362584   4.1942584  29.4127584
  36.1912584  -6.3157416  28.0037584  35.8612584  -6.5217416  28.8777584
  35.7512584  -6.9407416  27.4277584  24.2182584   1.1442584  28.2887584
  24.0742584   0.4492584  27.6457584  23.9692584   1.9482584  27.8337584
  32.7092584 -19.4247416  12.8937584  31.8902584 -18.9317416  12.8487584
  32.4722584 -20.2467416  13.3227584  35.0312584  -5.0877416  15.5807584
  34.3582584  -5.1207416  14.9007584  35.4202584  -4.2167416  15.4917584
  25.3552584 -10.1177416  28.7507584  25.3062584  -9.8767416  29.6757584
  26.2212584  -9.8207416  28.4717584  18.9882584 -17.3847416  26.0857584
  18.2512584 -17.1787416  26.6617584  19.6902584 -16.8037416  26.3777584
  34.8232584   6.7772584  18.2057584  34.7602584   5.8252584  18.1247584
  34.7482584   6.9422584  19.1457584  33.9112584   1.6712584  27.7367584
  34.2402584   1.9642584  26.8867584  33.6342584   0.7672584  27.5887584
  35.8362584   1.8512584  12.7517584  36.7402584   2.1562584  12.8197584
  35.4232584   2.4582584  12.1377584  36.9052584   5.4692584  28.7717584
  36.7442584   5.9332584  27.9497584  36.4572584   5.9932584  29.4347584
  32.4962584   4.4442584  22.3927584  32.2452584   4.0312584  21.5667584
  31.8702584   5.1602584  22.5027584  32.3602584   3.5932584  12.4307584
  31.4492584   3.3022584  12.4467584  32.5812584   3.6392584  11.5007584
  24.2472584   5.2952584  38.8247584  23.5862584   5.5432584  39.4707584
  23.7452584   4.9282584  38.0967584  23.2402584 -17.0017416  26.3907584
  23.2742584 -17.0557416  27.3457584  22.6462584 -16.2717416  26.2137584
  35.8852584  -2.3647416  14.4817584  36.7532584  -2.7427416  14.3367584
  35.3552584  -2.6977416  13.7577584  34.5132584  -2.6757416  12.1617584
  35.0062584  -2.3907416  11.3917584  34.5402584  -3.6317416  12.1237584
  34.5502584 -20.3857416  16.8867584  34.8242584 -19.9027416  16.1067584
  35.2072584 -21.0747416  16.9857584  34.7862584   7.3572584  21.0577584
  34.6452584   7.8052584  21.8917584  35.6952584   7.0612584  21.0937584
  19.4632584  -5.1407416  39.3957584  20.1442584  -4.4687416  39.4257584
  19.6472584  -5.6337416  38.5957584  36.6982584 -11.9567416  14.5587584
  36.4302584 -12.1247416  13.6557584  37.5322584 -12.4167416  14.6517584
  33.4542584  -0.9897416  27.1527584  33.1532584  -1.8297416  26.8067584
  34.3452584  -1.1617416  27.4577584   7.3222584 -21.2867416  16.7637584
   7.3272584 -21.3587416  15.8087584   7.8672584 -22.0147416  17.0617584
  30.8312584   7.6182584  37.9937584  31.0562584   7.0902584  38.7597584
  30.9082584   8.5232584  38.2957584  24.9962584 -20.0677416  12.6347584
  25.0112584 -20.2577416  13.5727584  25.1892584 -20.9077416  12.2167584
  32.0272584  -3.4307416  26.1497584  32.3112584  -4.2907416  26.4577584
  31.4562584  -3.1037416  26.8447584  33.1332584   1.5112584  20.7937584
  32.2342584   1.3332584  21.0687584  33.0712584   2.3132584  20.2747584
  15.0392584 -16.9117416  39.4507584  15.4142584 -16.8267416  40.3267584
  14.5562584 -17.7377416  39.4747584  28.2852584 -18.7187416  38.3377584
  28.8222584 -19.2997416  38.8767584  28.8992584 -18.0627416  38.0067584
  31.8822584   4.9302584  34.6087584  32.6542584   4.8422584  34.0497584
  31.2142584   4.3922584  34.1827584  26.9822584   5.7472584  33.9127584
  27.7322584   5.5772584  33.3427584  26.7962584   6.6792584  33.7917584
  29.1922584   5.9812584  11.6377584  30.1172584   6.0462584  11.4007584
  28.9212584   5.1232584  11.3107584  35.8962584   1.6702584  30.9287584
  36.7502584   2.0712584  30.7697584  35.2752584   2.2402584  30.4737584
  36.1192584  -2.2107416  39.7327584  35.6872584  -2.5357416  38.9427584
  36.9382584  -2.7027416  39.7787584  29.6462584   1.2662584  35.0067584
  30.4832584   1.7312584  35.0267584  29.1142584   1.7562584  34.3797584
  36.5262584  -1.4587416  20.2307584  37.3322584  -1.0577416  19.9047584
  35.9062584  -1.3707416  19.5067584  36.9322584 -20.3157416  33.3467584
  37.1652584 -20.9677416  32.6857584  35.9902584 -20.4307416  33.4757584
  21.8072584   2.7442584  39.4877584  20.9492584   3.1672584  39.5087584
  22.2822584   3.1982584  38.7917584  33.5942584 -11.4367416  40.2897584
  33.5742584 -10.8857416  41.0717584  33.4462584 -10.8287416  39.5647584
  36.2932584   4.8662584  36.6057584  35.7172584   4.9202584  37.3677584
  35.7852584   4.3812584  35.9547584  34.6222584   3.0632584  35.1837584
  33.8072584   2.9752584  34.6907584  34.5612584   2.3972584  35.8687584
  33.6452584  -3.3227416  34.5997584  33.7912584  -2.4917416  34.1487584
  32.7102584  -3.4967416  34.4887584  33.8212584 -16.3967416  40.7757584
  32.9972584 -16.7937416  40.4937584  33.8162584 -15.5267416  40.3767584
  31.0702584   0.2002584  37.7997584  31.7562584   0.6812584  37.3377584
  30.2862584   0.7392584  37.6917584  35.2602584  -6.5567416  30.8107584
  35.2672584  -5.6217416  30.6027584  34.3822584  -6.7197416  31.1537584
  33.2572584  -4.0277416  39.4907584  33.9472584  -4.6577416  39.2857584
  33.6182584  -3.1817416  39.2257584  37.0992584   6.4672584  32.4857584
  36.5692584   6.8162584  33.2027584  37.2352584   5.5472584  32.7127584
  34.7492584   1.7352584  39.0747584  35.3882584   2.2352584  39.5817584
  35.2522584   1.3712584  38.3467584  35.0032584  -3.6477416  37.2577584
  34.5532584  -3.2617416  36.5067584  35.0642584  -4.5797416  37.0477584
  28.0162584  -1.1267416  35.1657584  28.6352584  -0.3997416  35.2307584
  28.0032584  -1.3477416  34.2337584  33.3102584 -20.8887416  37.1587584
  33.0802584 -21.4777416  36.4407584  34.1032584 -21.2687416  37.5367584
  31.2912584  -9.3097416  40.0047584  30.8982584  -8.4367416  39.9967584
  30.5542584  -9.9027416  40.1547584  10.9892584 -18.9257416  12.1557584
  10.3522584 -18.4677416  11.6067584  10.4622584 -19.5117416  12.6977584
  36.2712584   0.4442584  37.1137584  36.9862584  -0.0597416  37.5027584
  36.6622584   0.8622584  36.3467584  33.6512584   0.5372584  36.4447584
  34.4932584   0.1202584  36.6277584  33.3292584   0.0922584  35.6597584
  31.4632584   7.6492584  35.2827584  31.4802584   7.3832584  36.2017584
  31.6632584   6.8492584  34.7977584  26.5902584   1.2622584  35.8577584
  26.7012584   0.5402584  35.2387584  27.3052584   1.1542584  36.4837584
  27.9312584 -17.6637416  30.8667584  28.0562584 -17.6137416  29.9197584
  28.8022584 -17.5127416  31.2327584  36.2132584   7.2472584  34.9527584
  37.0552584   7.5982584  35.2447584  36.0392584   6.5162584  35.5457584
  24.0292584 -20.3557416  37.7097584  24.6692584 -20.9707416  38.0697584
  24.3162584 -19.4987416  38.0247584  24.2332584   6.8462584  35.4377584
  24.7742584   6.9402584  36.2217584  24.3682584   5.9402584  35.1607584
  30.8132584   3.3872584  32.6957584  30.0452584   3.0332584  32.2467584
  31.3432584   3.7722584  31.9977584  28.4462584   1.9512584  31.4077584
  27.7112584   1.5162584  30.9767584  28.0492584   2.4272584  32.1367584
  31.6152584 -12.1497416  30.7357584  32.4462584 -11.9347416  31.1597584
  30.9472584 -11.8087416  31.3307584  31.1512584 -19.8987416  33.9817584
  30.2772584 -19.6197416  34.2567584  31.1942584 -20.8247416  34.2207584
  35.9992584  -5.4397416  39.6587584  36.6082584  -4.7107416  39.5437584
  36.5602584  -6.2107416  39.7417584  30.7862584  -1.1197416  16.7227584
  31.6482584  -1.5187416  16.8417584  30.8172584  -0.7357416  15.8467584
  28.2122584   0.3902584  27.9657584  27.8342584   0.4952584  28.8397584
  28.6502584   1.2232584  27.7917584  36.5512584 -15.0997416  32.3617584
  36.1622584 -15.3947416  31.5387584  36.2192584 -15.7127416  33.0177584
  31.7592584   6.3472584  40.2077584  32.1212584   5.5022584  39.9417584
  32.3752584   6.6772584  40.8617584  29.5092584 -20.9627416  10.6397584
  30.0422584 -21.2397416  11.3847584  30.1452584 -20.7487416   9.9567584
   9.2572584 -19.1237416  30.2597584   9.2292584 -18.4647416  29.5657584
   8.5852584 -19.7597416  30.0147584  27.5792584   2.6422584  33.8237584
  27.2762584   3.5412584  33.9497584  27.0322584   2.1202584  34.4107584
   8.0622584 -15.3487416  11.5247584   8.3912584 -14.8947416  10.7487584
   8.8062584 -15.3677416  12.1257584  26.5952584  -4.5617416  44.0817584
  26.5002584  -5.4397416  44.4517584  25.8302584  -4.4567416  43.5167584
  14.1572584   5.7082584  44.7527584  13.4522584   5.1512584  45.0827584
  14.1822584   6.4472584  45.3607584   7.8292584  -7.4927416  49.1557584
   7.0062584  -7.1727416  48.7837584   8.1022584  -8.1937416  48.5647584
  18.4192584 -10.2177416  46.3237584  17.8352584  -9.7677416  46.9337584
  18.8722584 -10.8687416  46.8597584  29.2732584 -12.0617416  46.9557584
  29.1842584 -11.8277416  46.0317584  29.9322584 -11.4547416  47.2937584
  35.2302584 -16.0027416  46.1687584  34.2902584 -15.8827416  46.0327584
  35.4092584 -16.8867416  45.8497584  25.5562584  -0.2067416  41.3007584
  24.9022584   0.4832584  41.1867584  25.4722584  -0.7487416  40.5167584
  17.8782584  -5.5817416  47.2847584  18.3272584  -4.7407416  47.3687584
  17.0702584  -5.4727416  47.7867584   9.5822584  -0.7957416  44.4657584
  10.3752584  -0.2597416  44.4667584   9.8662584  -1.6457416  44.8017584
  20.7232584  -6.8877416  41.1547584  20.0942584  -7.5887416  41.3257584
  20.2712584  -6.3027416  40.5467584  18.9532584   1.5522584  49.1627584
  18.8832584   2.3162584  48.5917584  19.2692584   0.8522584  48.5907584
  21.7242584   4.4832584  42.5107584  22.3482584   4.4772584  41.7847584
  22.1652584   3.9982584  43.2087584   8.7822584 -13.6977416  45.7577584
   9.1062584 -14.4857416  45.3227584   9.5682584 -13.2717416  46.1007584
  35.7282584  -5.9947416  48.2627584  35.6422584  -5.4167416  47.5047584
  35.3812584  -5.4847416  48.9947584  15.5472584 -15.1817416  44.1217584
  16.2112584 -14.6597416  43.6717584  15.1812584 -14.5887416  44.7787584
  14.9872584  -7.7957416  47.7117584  14.3522584  -8.0567416  48.3787584
  15.5582584  -8.5577416  47.6127584  29.6482584 -17.9607416  43.2837584
  28.8752584 -17.9907416  42.7197584  29.9912584 -17.0737416  43.1727584
  18.3852584   4.7312584  42.1777584  18.4442584   5.6812584  42.2797584
  18.8322584   4.3792584  42.9467584  21.7262584  -2.0397416  48.4267584
  21.2142584  -2.6047416  49.0047584  21.1002584  -1.3857416  48.1147584
  12.1102584  -7.4857416  46.6737584  12.4362584  -8.2847416  47.0887584
  11.5892584  -7.0577416  47.3527584  10.1932584   2.1552584  45.6127584
   9.7532584   1.5652584  46.2247584  10.9842584   1.6842584  45.3507584
  14.5702584   7.2462584  42.2997584  13.8742584   6.7212584  41.9047584
  14.4802584   7.0942584  43.2407584  22.8832584  -2.9587416  45.1687584
  23.0602584  -2.9627416  44.2287584  23.4412584  -3.6527416  45.5207584
  13.2002584 -20.6857416  45.0827584  14.0492584 -21.0947416  44.9137584
  13.3542584 -19.7507416  44.9507584  16.6052584 -12.8447416  47.1837584
  17.0942584 -13.1107416  47.9627584  17.2122584 -12.2837416  46.7007584
  15.8562584   1.5192584  46.3467584  16.3572584   1.1372584  47.0677584
  16.4982584   1.6442584  45.6477584  19.3842584 -18.5387416  47.2687584
  19.7762584 -18.0587416  47.9987584  20.0192584 -19.2257416  47.0637584
  11.6832584 -17.2507416  49.2307584  11.0122584 -17.8887416  49.4707584
  11.9452584 -17.4987416  48.3447584  19.8092584 -18.8237416  43.2657584
  19.4412584 -18.4537416  42.4637584  20.4682584 -18.1867416  43.5437584
  20.7982584 -11.8727416  43.7877584  21.2752584 -12.6197416  44.1477584
  21.4142584 -11.1417416  43.8507584  17.8742584 -10.2807416  41.0947584
  18.1562584  -9.6007416  40.4827584  17.7872584  -9.8267416  41.9337584
  13.3912584   7.2202584  48.0117584  12.8162584   7.7562584  48.5567584
  14.1322584   7.7912584  47.8087584  29.3522584  -9.5847416  49.3137584
  29.3962584  -8.6337416  49.2217584  30.0112584  -9.9167416  48.7037584
  17.3362584 -13.0217416  43.5657584  17.9932584 -12.9607416  42.8727584
  17.7872584 -12.7127416  44.3517584  19.7092584 -12.1737416  47.6637584
  20.1172584 -12.6097416  46.9147584  19.8112584 -12.7927416  48.3867584
  15.6952584 -17.4277416  49.2317584  16.0562584 -17.1117416  48.4037584
  16.1742584 -18.2377416  49.4087584  11.3652584 -13.5257416  47.1777584
  10.7932584 -13.2347416  47.8877584  11.5162584 -12.7397416  46.6527584
  14.8392584  -5.9767416  41.1807584  15.3312584  -6.6597416  41.6357584
  15.3432584  -5.1767416  41.3307584  16.9652584 -18.6817416  46.2607584
  17.8142584 -18.8307416  46.6787584  16.9932584 -19.2107416  45.4637584
  26.9692584  -4.5447416  47.4127584  26.8192584  -3.7697416  46.8727584
  26.3232584  -4.4767416  48.1157584  16.6882584  -5.6347416  44.4937584
  16.9592584  -5.7667416  45.4027584  17.0992584  -4.8087416  44.2387584
  19.5232584   1.8732584  44.6517584  18.7642584   1.3572584  44.3807584
  20.2682584   1.4402584  44.2357584  11.0492584   6.7012584  46.7297584
  10.7262584   7.5562584  46.4447584  11.9332584   6.8732584  47.0517584
  26.1842584 -13.2187416  46.5887584  27.1022584 -13.1877416  46.8597584
  26.0382584 -14.1307416  46.3397584  12.9962584  -5.4877416  44.9317584
  13.7882584  -5.9237416  44.6177584  12.8112584  -5.9047416  45.7737584
  22.8282584  -9.9147416  44.3427584  23.6482584 -10.3917416  44.4657584
  22.6572584  -9.5067416  45.1927584  16.0812584  -1.1497416  42.2187584
  15.4762584  -1.7877416  42.5967584  15.9652584  -0.3637416  42.7527584
  20.6372584 -21.0017416  45.7447584  21.4542584 -21.0227416  46.2417584
  20.9112584 -21.0557416  44.8287584  19.0542584 -12.6947416  41.4377584
  18.6662584 -11.8637416  41.1657584  19.9982584 -12.5397416  41.4117584
  21.9252584 -16.5357416  47.3557584  22.4812584 -17.3117416  47.2867584
  22.4612584 -15.8967416  47.8257584  20.8692584  -9.5257416  48.9307584
  20.1512584  -9.1187416  49.4167584  20.5842584 -10.4287416  48.7937584
  10.3912584  -6.2787416  48.6147584   9.7932584  -6.1517416  47.8787584
   9.9192584  -6.8587416  49.2107584  20.1462584  -3.3747416  45.3307584
  20.0192584  -3.0877416  46.2347584  21.0792584  -3.2387416  45.1647584
  12.4822584  -4.9687416  41.8637584  13.3912584  -5.1647416  42.0927584
  12.2882584  -5.5547416  41.1327584  25.1572584 -16.7877416  40.9537584
  24.2452584 -16.5197416  41.0697584  25.3912584 -17.2067416  41.7827584
  13.2752584  -9.8097416  43.7457584  12.4552584  -9.3167416  43.7087584
  13.9132584  -9.1877416  44.0947584  19.0732584  -9.6247416  43.7597584
  18.7892584  -9.6027416  44.6727584  19.4772584 -10.4857416  43.6537584
  13.5752584 -17.6877416  46.8977584  14.0172584 -17.4047416  47.6977584
  13.9702584 -17.1577416  46.2047584  28.1862584  -4.7487416  42.1057584
  28.5432584  -3.8747416  41.9467584  27.5982584  -4.6357416  42.8517584
  25.1672584 -11.3697416  44.9597584  25.7572584 -10.6257416  45.0847584
  25.4192584 -11.9927416  45.6407584  15.1952584  -7.7647416  44.9067584
  15.8772584  -7.1507416  44.6357584  15.1192584  -7.6377416  45.8527584
  15.6992584   7.9842584  45.3397584  16.4532584   8.2502584  44.8127584
  15.8552584   8.3802584  46.1967584  25.0502584 -15.7687416  46.9397584
  25.9672584 -15.9537416  46.7377584  24.5612584 -16.1587416  46.2157584
  15.0172584 -11.8607416  42.5217584  15.8922584 -12.1707416  42.7537584
  14.5632584 -11.7717416  43.3597584  34.3262584  -8.0757416  47.1957584
  33.4062584  -7.8417416  47.0737584  34.7242584  -7.2917416  47.5737584
  12.5692584 -15.7147416  45.1597584  13.1312584 -14.9727416  44.9367584
  12.3202584 -15.5617416  46.0717584  30.7802584 -10.2897416  43.9607584
  29.8882584  -9.9437416  43.9427584  31.3052584  -9.6217416  43.5197584
  24.2522584 -17.2747416  44.3137584  24.5162584 -18.1377416  44.6327584
  23.5262584 -17.4527416  43.7147584  36.0242584 -14.2937416  42.9077584
  36.0632584 -14.5877416  43.8177584  36.7332584 -14.7687416  42.4727584
  12.8672584   2.0542584  40.7017584  13.2882584   2.3032584  41.5247584
  13.5772584   1.6992584  40.1677584  10.2212584  -3.2977416  42.0527584
  10.3502584  -2.3497416  42.0817584  11.0662584  -3.6467416  41.7717584
  10.7482584  -8.7837416  43.8947584   9.9152584  -9.1517416  44.1917584
  10.6552584  -7.8407416  44.0307584  17.3132584 -19.8027416  44.0317584
  16.7632584 -19.7317416  43.2507584  18.1672584 -19.4717416  43.7537584
  14.9952584  -5.0217416  47.6837584  14.8082584  -5.9517416  47.8087584
  15.0262584  -4.6607416  48.5697584  20.2272584  -7.1637416  43.8607584
  20.6232584  -6.8887416  43.0347584  19.7952584  -7.9927416  43.6557584
  14.4042584 -13.5597416  46.0057584  13.8352584 -12.8077416  46.1707584
  15.1622584 -13.4167416  46.5717584  28.2582584 -11.9257416  42.6337584
  28.7262584 -12.5487416  43.1887584  28.7382584 -11.9347416  41.8047584
  12.0882584  -2.7127416  47.1107584  12.4852584  -1.8677416  47.3237584
  12.6022584  -3.0397416  46.3727584   8.0712584   7.5672584  41.8367584
   8.3712584   8.0792584  41.0857584   8.2312584   6.6572584  41.5867584
  23.3452584  -4.7307416  47.5327584  22.6402584  -5.0247416  46.9547584
  22.9032584  -4.4887416  48.3467584  16.9092584  -4.3017416  41.2637584
  17.6742584  -4.6767416  40.8277584  17.2712584  -3.8047416  41.9977584
  21.5802584  -0.6307416  41.6707584  20.7102584  -0.3457416  41.3917584
  22.0422584  -0.8247416  40.8557584  34.1232584  -9.6577416  42.4807584
  34.1142584  -9.0827416  43.2467584  34.8272584 -10.2817416  42.6557584
  23.0272584 -18.2547416  42.1127584  23.5862584 -19.0307416  42.0747584
  22.6822584 -18.1637416  41.2247584  24.0922584   8.3782584  46.2977584
  23.9432584   7.6432584  46.8937584  23.8092584   8.0542584  45.4427584
  17.0232584   5.6632584  46.0207584  16.1262584   5.8812584  45.7667584
  17.5612584   5.9772584  45.2937584  18.2802584   4.1412584  47.9447584
  18.0872584   4.6232584  48.7477584  17.9532584   4.7042584  47.2427584
  21.1602584  -6.0337416  46.4107584  21.3112584  -6.9717416  46.2967584
  20.5762584  -5.7957416  45.6907584  16.9152584   6.5042584  49.2357584
  16.6152584   6.4962584  48.3277584  16.3402584   7.1322584  49.6727584
  21.0532584 -14.8267416  43.0897584  20.2612584 -14.3637416  42.8137584
  20.7442584 -15.4717416  43.7257584  17.6992584  -1.6987416  46.7297584
  17.0492584  -2.0517416  46.1227584  17.1882584  -1.1877416  47.3577584
  20.2842584 -16.4397416  45.2837584  20.8762584 -16.4487416  46.0357584
  19.5912584 -17.0577416  45.5167584   7.2312584  -0.0877416  45.3187584
   8.1242584  -0.4107416  45.2027584   6.6832584  -0.7287416  44.8647584
  22.9542584   4.3162584  45.3657584  22.8342584   3.5342584  44.8257584
  22.1132584   4.4332584  45.8087584  12.9912584  -0.1687416  47.3847584
  13.6472584   0.2142584  47.9667584  12.1752584  -0.1307416  47.8837584
  24.6782584   6.1062584  48.3597584  23.8322584   5.7232584  48.5897584
  25.0652584   5.4832584  47.7447584   9.5032584  -2.7787416  46.1437584
   8.8562584  -2.9397416  46.8317584  10.3482584  -2.9137416  46.5727584
  21.4992584   7.2162584  47.9917584  21.9492584   6.5812584  48.5477584
  21.1602584   6.6982584  47.2617584  13.6892584  -2.6617416  42.9997584
  13.0972584  -2.0467416  42.5667584  13.1902584  -3.4767416  43.0547584
  14.4582584   1.5232584  44.0117584  14.7662584   2.2862584  43.5237584
  14.8392584   1.6262584  44.8837584  16.3602584 -16.1277416  46.3677584
  16.0442584 -15.8947416  45.4947584  16.6122584 -17.0477416  46.2947584
  10.4402584  -6.0817416  43.8297584  10.8292584  -5.4237416  43.2537584
  10.9932584  -6.0737416  44.6107584  18.4642584   7.8582584  41.3737584
  18.3372584   7.5352584  40.4817584  17.9192584   8.6442584  41.4237584
  13.8982584   3.3012584  47.6437584  14.5072584   2.8182584  47.0857584
  13.2452584   3.6532584  47.0387584   7.9742584  -3.7877416  43.6897584
   8.5682584  -3.7327416  44.4387584   8.4992584  -3.4967416  42.9447584
  18.0992584   0.7062584  42.5647584  18.0642584  -0.1777416  42.1987584
  17.6272584   1.2472584  41.9317584   7.8082584  -6.8227416  43.0527584
   7.1792584  -6.1117416  43.1717584   8.6592584  -6.4227416  43.2297584
  27.2792584 -18.5337416  42.0377584  27.6262584 -19.2177416  41.4647584
  26.4182584 -18.8577416  42.3027584  18.0592584  -3.0937416  43.3837584
  17.8652584  -2.1617416  43.4887584  18.7552584  -3.2667416  44.0187584
  20.8372584 -21.1227416  42.4667584  20.0562584 -21.3457416  41.9607584
  20.8422584 -20.1657416  42.4927584  10.3672584 -20.9827416  45.1937584
  11.3222584 -20.9157416  45.1877584  10.0712584 -20.1577416  45.5777584
  16.6142584  -0.1107416  48.5937584  16.0102584  -0.0837416  49.3357584
  17.4042584   0.3272584  48.9117584  32.6572584   3.6052584  49.2027584
  31.7702584   3.8532584  48.9437584  33.0942584   3.3842584  48.3797584
  20.4672584   4.4552584  46.1837584  20.2712584   4.2892584  47.1057584
  19.7062584   4.1182584  45.7117584  23.8592584  -9.2827416  41.8167584
  23.3372584  -8.5277416  41.5437584  23.4252584  -9.6007416  42.6087584
  21.6942584  -8.7137416  46.4917584  21.5662584  -8.8917416  47.4237584
  20.8112584  -8.7247416  46.1217584  26.2192584  -6.8677416  46.2257584
  26.3722584  -6.0247416  46.6517584  26.0152584  -7.4657416  46.9447584
  19.3062584  -3.2167416  48.3567584  18.9382584  -2.9887416  49.2107584
  18.7582584  -2.7477416  47.7267584  32.4132584  -6.6997416  41.9727584
  32.5112584  -7.4797416  41.4257584  31.6302584  -6.2647416  41.6317584
  26.0612584   6.0442584  43.9687584  26.9202584   5.7622584  44.2817584
  25.4462584   5.7112584  44.6217584  15.5512584 -17.3877416  42.4797584
  15.6422584 -16.7447416  43.1827584  14.7302584 -17.8417416  42.6737584
  18.3952584   7.1972584  44.0887584  18.4052584   8.0282584  44.5647584
  18.7982584   7.4002584  43.2437584   8.8742584   6.8842584  48.2017584
   9.5432584   6.3752584  47.7457584   8.0892584   6.3382584  48.1637584
   8.6062584   5.1892584  41.0157584   9.3822584   5.5022584  40.5507584
   8.4282584   4.3302584  40.6337584  29.5592584  -6.9357416  49.3077584
  28.9332584  -6.8997416  50.0307584  30.3312584  -6.4737416  49.6357584
  20.1492584  -0.1997416  46.9837584  20.6792584   0.2402584  46.3187584
  19.5962584  -0.8047416  46.4887584  10.6342584 -15.3847416  42.5247584
  11.1962584 -14.7177416  42.1297584  11.1692584 -15.7667416  43.2207584
  24.2052584   2.0322584  40.7187584  24.6602584   2.8022584  41.0597584
  23.3342584   2.3522584  40.4827584  25.4522584  -8.9677416  48.0557584
  24.9002584  -9.5957416  47.5897584  24.8522584  -8.5157416  48.6487584
   7.3302584 -18.0067416  46.4567584   7.1852584 -18.9207416  46.2147584
   7.2662584 -17.9987416  47.4117584  11.9412584   4.8642584  42.7007584
  12.0242584   4.1432584  43.3247584  11.1212584   5.2952584  42.9387584
  12.7112584  -0.7017416  41.2537584  11.8062584  -0.6627416  40.9437584
  13.0622584   0.1712584  41.0797584  15.9262584   3.7202584  43.4037584
  16.6462584   3.7902584  42.7777584  15.4862584   4.5692584  43.3587584
  12.0622584   0.4402584  45.1127584  12.6772584   0.7712584  44.4577584
  12.5812584   0.3692584  45.9147584   8.3772584   2.3022584  42.9017584
   8.8972584   1.8062584  42.2697584   8.8152584   2.1562584  43.7397584
  33.6942584   1.8442584  44.5097584  34.4612584   1.7302584  43.9487584
  33.3462584   2.7022584  44.2687584  25.6802584 -13.5377416  42.2267584
  26.3932584 -13.1837416  42.7577584  25.2442584 -12.7657416  41.8647584
  21.6462584  -0.6557416  44.3977584  21.5612584  -0.7987416  43.4547584
  22.2162584  -1.3637416  44.6967584  22.9912584   7.1572584  43.8727584
  22.8552584   6.2312584  43.6727584  22.3232584   7.6142584  43.3617584
  16.2792584 -20.3897416  41.7947584  15.5952584 -21.0597416  41.7707584
  15.8662584 -19.6117416  41.4217584  21.8642584 -13.7697416  45.9747584
  22.5562584 -13.8907416  45.3247584  21.5932584 -14.6587416  46.2037584
  19.4362584 -15.2197416  48.4967584  20.2572584 -15.6467416  48.2537584
  18.7702584 -15.6637416  47.9717584  32.1542584  -6.4487416  47.0347584
  31.2652584  -6.2217416  46.7607584  32.6852584  -5.6957416  46.7767584
  34.9542584 -18.7807416  44.5687584  35.4092584 -19.5477416  44.2207584
  34.2342584 -18.6307416  43.9567584  23.0632584 -14.5487416  41.2797584
  22.3962584 -14.7137416  41.9467584  23.6502584 -13.9087416  41.6807584
  32.6442584 -14.5957416  46.1187584  32.0792584 -15.3587416  45.9977584
  32.9572584 -14.3867416  45.2377584  23.9012584 -14.5597416  44.5057584
  24.3902584 -14.0507416  43.8587584  23.9782584 -15.4657416  44.2057584
  36.7262584 -20.8657416  43.9957584  37.3892584 -20.8027416  43.3087584
  36.3362584 -21.7317416  43.8737584   7.7522584 -18.1287416  42.7257584
   8.0972584 -17.6237416  41.9897584   6.8132584 -18.1957416  42.5517584
  32.6462584   1.4352584  46.9667584  33.3572584   1.0262584  47.4607584
  33.0192584   1.5992584  46.1007584  27.0222584  -9.4037416  45.4597584
  27.4812584  -9.2437416  46.2837584  26.7482584  -8.5357416  45.1647584
   8.8892584  -7.0027416  46.2737584   8.2672584  -7.0527416  45.5467584
   8.9552584  -7.9017416  46.5947584  28.8192584  -2.0787416  41.8227584
  29.5972584  -2.4827416  42.2057584  28.5792584  -1.3867416  42.4387584
  36.4112584   2.2002584  46.4577584  36.5592584   2.7532584  45.6907584
  36.6242584   1.3152584  46.1607584  32.9302584  -2.4197416  48.7997584
  32.0432584  -2.4377416  49.1587584  33.3802584  -3.1417416  49.2367584
  23.8472584 -11.9967416  47.7197584  23.4792584 -12.4637416  46.9687584
  24.7512584 -12.3047416  47.7747584  25.5362584   4.1812584  46.6627584
  26.0592584   3.4342584  46.3707584  24.7902584   4.2002584  46.0637584
  11.9862584   4.2472584  45.8677584  11.5462584   5.0712584  46.0797584
  11.2732584   3.6292584  45.7077584   7.2242584 -15.2307416  47.9087584
   6.6462584 -15.6717416  47.2847584   7.9022584 -14.8287416  47.3647584
  19.2342584 -17.7767416  40.9287584  18.6422584 -17.0537416  40.7217584
  19.9092584 -17.7357416  40.2507584  30.1652584   8.2052584  47.2997584
  29.5112584   8.5422584  47.9117584  30.8372584   7.8132584  47.8587584
  37.2252584 -12.2097416  47.9667584  36.2892584 -12.3117416  48.1387584
  37.3652584 -12.6547416  47.1317584   9.8302584 -12.6387416  49.2537584
  10.2532584 -12.4367416  50.0887584   8.9642584 -12.2377416  49.3207584
  13.2592584 -18.0607416  43.9547584  12.9062584 -17.1967416  44.1687584
  12.5692584 -18.4797416  43.4397584  27.3562584 -18.3167416  47.7937584
  27.9822584 -18.8827416  48.2467584  26.6222584 -18.2357416  48.4017584
  13.0802584 -11.2847416  45.9837584  12.8292584 -10.7287416  46.7217584
  13.0662584 -10.6997416  45.2267584  23.1452584  -5.6207416  41.2947584
  22.2632584  -5.9587416  41.4477584  23.5842584  -6.3127416  40.7997584
  29.3582584 -13.7977416  49.2547584  30.2722584 -14.0817416  49.2227584
  29.3212584 -13.0417416  48.6687584  31.5802584 -10.6677416  47.8577584
  31.8882584 -10.2207416  48.6457584  32.2922584 -10.5597416  47.2267584
  31.6242584 -13.3327416  40.7857584  32.1932584 -12.7327416  40.3037584
  32.1432584 -13.5967416  41.5457584  27.6392584 -15.8407416  46.5707584
  27.8832584 -16.6267416  47.0587584  28.4742584 -15.4657416  46.2877584
  30.2342584   4.1332584  48.3677584  29.4102584   4.5492584  48.1147584
  30.2522584   3.3142584  47.8727584   8.3972584  -3.2337416  48.7787584
   8.9802584  -3.1057416  49.5277584   7.6072584  -3.6237416  49.1527584
  31.9812584 -19.4507416  46.5187584  31.3772584 -20.1937416  46.5317584
  32.8512584 -19.8497416  46.5237584  34.9592584  -7.9667416  44.4667584
  34.9322584  -7.7237416  45.3917584  35.0942584  -7.1387416  44.0047584
  31.6982584 -17.7797416  48.9567584  31.8592584 -18.4397416  48.2827584
  32.5622584 -17.6027416  49.3307584  35.0852584  -5.6057416  42.4337584
  34.2562584  -6.0707416  42.3147584  35.4632584  -5.5617416  41.5557584
  11.5992584 -10.6957416  41.6677584  10.8932584 -10.1227416  41.9667584
  12.3172584 -10.5317416  42.2797584  34.4312584 -16.5957416  48.6807584
  34.5842584 -15.6747416  48.8937584  34.7542584 -16.6907416  47.7847584
  23.9792584  -3.1447416  42.3007584  23.9152584  -4.0357416  41.9567584
  24.6062584  -2.7097416  41.7237584  15.7072584  -2.6407416  45.3137584
  15.6382584  -3.5707416  45.5297584  15.0672584  -2.5087416  44.6147584
   8.1082584  -9.3677416  44.1327584   7.9602584  -8.7057416  43.4577584
   7.4382584 -10.0317416  43.9687584  30.2142584 -13.1317416  44.1247584
  30.4082584 -12.1957416  44.0697584  30.6312584 -13.4157416  44.9387584
  25.5902584 -19.7987416  45.1267584  25.3652584 -20.5337416  45.6967584
  26.5462584 -19.7587416  45.1537584   8.1722584  -9.7817416  47.0857584
   7.9992584  -9.9967416  46.1687584   8.0312584 -10.6037416  47.5557584
  30.2812584 -15.5207416  42.9057584  30.3112584 -14.6027416  43.1747584
  29.7702584 -15.5177416  42.0967584  26.6232584   7.4522584  41.4887584
  27.5802584   7.4442584  41.4827584  26.3832584   6.9322584  42.2557584
  15.1162584 -20.6367416  47.6807584  15.5792584 -20.1617416  48.3707584
  14.8052584 -19.9537416  47.0867584  33.2562584 -15.3637416  43.4927584
  33.9692584 -15.0897416  42.9157584  32.6692584 -15.8647416  42.9267584
  32.6052584  -0.7507416  42.1517584  32.6932584  -0.5657416  41.2167584
  33.4172584  -1.2007416  42.3847584  36.5982584 -11.7887416  41.8357584
  36.9762584 -11.9487416  40.9717584  36.0812584 -12.5737416  42.0207584
  28.9572584  -8.2047416  43.0037584  28.9672584  -7.8587416  42.1117584
  28.1492584  -8.7157416  43.0537584  35.2242584   4.2042584  40.8207584
  34.8452584   4.8182584  40.1907584  35.9842584   4.6652584  41.1757584
  35.9532584   6.6182584  43.6677584  36.0692584   5.7192584  43.9757584
  36.6712584   6.7562584  43.0507584  29.6262584   2.9052584  41.4387584
  28.8502584   2.8332584  41.9947584  29.6992584   2.0492584  41.0167584
  26.7502584  -2.3067416  45.4117584  27.0212584  -3.0647416  44.8947584
  26.7652584  -1.5767416  44.7927584  34.1332584 -10.9947416  46.1677584
  34.4902584 -10.1297416  46.3657584  34.7362584 -11.3607416  45.5197584
   8.9072584 -16.8177416  44.8467584   8.5862584 -17.2347416  44.0467584
   8.2792584 -17.0767416  45.5207584  33.9052584   7.3282584  41.8437584
  34.7252584   6.9772584  42.1907584  33.5252584   7.8172584  42.5737584
  31.3692584  -3.0567416  42.3857584  31.7272584  -2.1917416  42.1847584
  32.0212584  -3.4587416  42.9607584  35.0822584 -18.6267416  41.4087584
  34.3322584 -19.1997416  41.5697584  34.7642584 -17.7497416  41.6197584
  31.1942584 -16.8587416  45.6907584  31.0782584 -17.0427416  44.7587584
  31.4412584 -17.7007416  46.0727584  12.4712584 -10.0097416  48.1677584
  12.0382584 -10.6427416  48.7417584  12.7682584  -9.3167416  48.7567584
  34.6672584 -13.2697416  47.9967584  34.2722584 -12.5097416  47.5687584
  34.6462584 -13.9567416  47.3307584  11.8322584 -13.3597416  40.9807584
  11.7432584 -12.4237416  41.1597584  12.7732584 -13.5257416  41.0357584
  10.9792584 -18.4267416  46.1607584  11.9332584 -18.3497416  46.1937584
  10.6962584 -17.6817416  45.6307584  25.7092584   4.1352584  41.3367584
  25.8062584   5.0372584  41.6427584  26.3902584   4.0342584  40.6707584
  29.7402584  -5.9887416  44.9077584  29.0822584  -5.4777416  44.4357584
  29.6832584  -6.8647416  44.5267584  29.1642584   8.1652584  44.9097584
  28.6852584   8.9872584  45.0057584  29.4862584   7.9702584  45.7897584
  23.4302584 -18.9727416  47.6557584  23.6912584 -19.8487416  47.3727584
  24.2502584 -18.5457416  47.9017584  27.5222584   2.5422584  43.4437584
  26.7982584   3.0312584  43.0547584  27.4432584   2.7042584  44.3837584
  34.3422584  -0.1507416  48.7457584  34.2102584   0.4332584  49.4927584
  33.5592584  -0.7007416  48.7287584  28.3072584 -19.4547416  45.3587584
  28.3042584 -18.9057416  46.1437584  28.7542584 -18.9257416  44.6977584
   9.2732584   6.7682584  44.1277584   8.8412584   7.2092584  43.3967584
   9.6602584   7.4782584  44.6407584  24.6522584  -1.9507416  47.5527584
  23.7642584  -2.2957416  47.6467584  24.9142584  -2.2017416  46.6667584
  27.1252584   1.9812584  46.0717584  26.6522584   1.1492584  46.0887584
  28.0392584   1.7402584  46.2227584  28.7192584   5.4582584  44.5537584
  29.0262584   5.1372584  43.7057584  28.9942584   6.3752584  44.5767584
  29.7592584   1.6172584  46.8687584  29.7072584   0.8332584  47.4157584
  30.6772584   1.6642584  46.6017584  31.3052584   0.2602584  44.3547584
  31.9502584   0.8832584  44.6887584  31.6302584   0.0192584  43.4877584
  32.5162584  -5.0457416  44.3497584  32.6232584  -5.7017416  43.6607584
  31.6822584  -5.2677416  44.7647584  26.9062584  -0.0257416  48.2107584
  26.3112584  -0.6937416  47.8697584  27.7042584  -0.5057416  48.4297584
  34.6642584   4.2702584  47.1267584  34.9512584   3.3672584  47.2567584
  34.5892584   4.3642584  46.1767584  32.7092584 -19.4247416  42.8937584
  31.8902584 -18.9317416  42.8487584  32.4722584 -20.2467416  43.3227584
  35.0312584  -5.0877416  45.5807584  34.3582584  -5.1207416  44.9007584
  35.4202584  -4.2167416  45.4917584  31.8212584   8.1472584  43.8847584
  30.8742584   8.0342584  43.9607584  32.1752584   7.7382584  44.6747584
  31.3482584   6.9032584  49.2907584  32.1802584   6.4302584  49.3057584
  30.7172584   6.2902584  49.6677584  34.8232584   6.7772584  48.2057584
  34.7602584   5.8252584  48.1247584  34.7482584   6.9422584  49.1457584
  35.8362584   1.8512584  42.7517584  36.7402584   2.1562584  42.8197584
  35.4232584   2.4582584  42.1377584  22.6542584   1.8962584  43.6557584
  23.1372584   1.7142584  42.8497584  22.5592584   1.0412584  44.0757584
  32.3602584   3.5932584  42.4307584  31.4492584   3.3022584  42.4467584
  32.5812584   3.6392584  41.5007584  28.3472584   5.6002584  47.1677584
  28.6122584   5.3732584  46.2767584  28.7292584   6.4642584  47.3197584
  35.8852584  -2.3647416  44.4817584  36.7532584  -2.7427416  44.3367584
  35.3552584  -2.6977416  43.7577584  34.5132584  -2.6757416  42.1617584
  35.0062584  -2.3907416  41.3917584  34.5402584  -3.6317416  42.1237584
   7.3642584   4.3062584  44.2617584   7.7962584   3.7642584  43.6007584
   8.0372584   4.9272584  44.5397584  29.1002584  -1.3007416  48.9057584
  28.9852584  -2.2447416  49.0087584  29.6052584  -1.2067416  48.0987584
  34.5502584 -20.3857416  46.8867584  34.8242584 -19.9027416  46.1067584
  35.2072584 -21.0747416  46.9857584  36.6982584 -11.9567416  44.5587584
  36.4302584 -12.1247416  43.6557584  37.5322584 -12.4167416  44.6517584
   7.3222584 -21.2867416  46.7637584   7.3272584 -21.3587416  45.8087584
   7.8672584 -22.0147416  47.0617584  24.9962584 -20.0677416  42.6347584
  25.0112584 -20.2577416  43.5727584  25.1892584 -20.9077416  42.2167584
  28.4782584  -0.1247416  43.8227584  29.3842584   0.0362584  44.0857584
  28.1222584   0.7452584  43.6457584   7.7442584   1.4672584  49.0057584
   7.3792584   1.8722584  48.2197584   7.0502584   1.5452584  49.6607584
  33.2722584   7.0902584  45.9467584  33.7112584   7.3802584  46.7467584
  33.7242584   6.2812584  45.7057584  29.1922584   5.9812584  41.6377584
  30.1172584   6.0462584  41.4007584  28.9212584   5.1232584  41.3107584
  24.8062584  -0.8207416  43.8437584  24.6082584  -1.6717416  43.4517584
  24.9662584  -0.2447416  43.0967584  10.9892584 -18.9257416  42.1557584
  10.3522584 -18.4677416  41.6067584  10.4622584 -19.5117416  42.6977584
  33.3512584   4.8382584  44.5287584  32.8602584   5.6472584  44.6717584
  33.0032584   4.4892584  43.7087584   9.8972584  -0.4047416  41.1547584
   9.0562584   0.0532584  41.1637584  10.0832584  -0.5447416  40.2257584
  30.7862584  -1.1197416  46.7227584  31.6482584  -1.5187416  46.8417584
  30.8172584  -0.7357416  45.8467584  29.5092584 -20.9627416  40.6397584
  30.0422584 -21.2397416  41.3847584  30.1452584 -20.7487416  39.9567584
   8.0622584 -15.3487416  41.5247584   8.3912584 -14.8947416  40.7487584
   8.8062584 -15.3677416  42.1257584  26.5952584  25.4382584 -15.9182416
  26.5002584  24.5602584 -15.5482416  25.8302584  25.5432584 -16.4832416
  14.1572584  35.7082584 -15.2472416  13.4522584  35.1512584 -14.9172416
  14.1822584  36.4472584 -14.6392416  28.3182584   9.5832584   2.3547584
  28.1582584   8.7342584   1.9427584  28.8282584  10.0722584   1.7087584
  13.0722584  15.4032584 -10.6792416  12.6072584  14.6062584 -10.9322416
  13.0962584  15.9302584 -11.4782416   7.8292584  22.5072584 -10.8442416
   7.0062584  22.8272584 -11.2162416   8.1022584  21.8062584 -11.4352416
  26.0492584  27.0472584 -10.0962416  25.6622584  26.6062584  -9.3392416
  25.3422584  27.5902584 -10.4442416  18.4192584  19.7822584 -13.6762416
  17.8352584  20.2322584 -13.0662416  18.8722584  19.1312584 -13.1402416
  24.6602584  23.6612584  -1.4722416  25.1412584  23.5782584  -0.6482416
  25.3252584  23.5422584  -2.1502416  29.2732584  17.9382584 -13.0442416
  29.1842584  18.1722584 -13.9682416  29.9322584  18.5452584 -12.7062416
  12.8082584  22.1202584 -10.4302416  12.9582584  22.1512584  -9.4852416
  11.9472584  22.5202584 -10.5502416  36.5012584  27.3942584  -4.1782416
  36.8412584  27.9672584  -3.4902416  37.0912584  27.5322584  -4.9192416
  20.1242584  33.9862584  -5.1822416  21.0572584  33.7942584  -5.2712416
  19.7172584  33.5552584  -5.9332416  35.2302584  13.9972584 -13.8312416
  34.2902584  14.1172584 -13.9672416  35.4092584  13.1132584 -14.1502416
  25.5562584  29.7932584 -18.6992416  24.9022584  30.4832584 -18.8132416
  25.4722584  29.2512584 -19.4832416  17.8782584  24.4182584 -12.7152416
  18.3272584  25.2592584 -12.6312416  17.0702584  24.5272584 -12.2132416
  35.9932584  18.3732584  -3.6072416  35.0542584  18.4342584  -3.7812416
  36.0502584  18.0302584  -2.7152416   9.5822584  29.2042584 -15.5342416
  10.3752584  29.7402584 -15.5332416   9.8662584  28.3542584 -15.1982416
  25.1712584  22.8902584  -8.7152416  24.4452584  22.7982584  -9.3322416
  24.8972584  22.3902584  -7.9462416  20.7232584  23.1122584 -18.8452416
  20.0942584  22.4112584 -18.6742416  20.2712584  23.6972584 -19.4532416
  24.1262584  30.4622584  -6.0132416  24.4712584  31.3382584  -6.1822416
  24.8562584  29.8742584  -6.2072416  18.9532584  31.5522584 -10.8372416
  18.8832584  32.3162584 -11.4082416  19.2692584  30.8522584 -11.4092416
  21.7242584  34.4832584 -17.4892416  22.3482584  34.4772584 -18.2152416
  22.1652584  33.9982584 -16.7912416   8.7822584  16.3022584 -14.2422416
   9.1062584  15.5142584 -14.6772416   9.5682584  16.7282584 -13.8992416
  22.3482584   9.1142584 -10.5082416  21.9582584   9.8622584 -10.9602416
  22.2832584   8.3942584 -11.1352416  22.6122584  22.4692584  -6.2852416
  22.0032584  22.4152584  -5.5482416  22.0612584  22.6902584  -7.0362416
  14.0682584  35.3602584  -9.6222416  14.2852584  36.2432584  -9.3242416
  14.2102584  35.3842584 -10.5682416  35.7282584  24.0052584 -11.7372416
  35.6422584  24.5832584 -12.4952416  35.3812584  24.5152584 -11.0052416
  15.5472584  14.8182584 -15.8782416  16.2112584  15.3402584 -16.3282416
  15.1812584  15.4112584 -15.2212416  31.5782584  17.8452584  -2.0152416
  31.9142584  16.9522584  -2.0852416  31.4842584  17.9932584  -1.0742416
  14.9872584  22.2042584 -12.2882416  14.3522584  21.9432584 -11.6212416
  15.5582584  21.4422584 -12.3872416  23.0442584  22.4272584 -10.3692416
  22.3582584  23.0002584 -10.7112416  22.5952584  21.6052584 -10.1722416
  29.6482584  12.0392584 -16.7162416  28.8752584  12.0092584 -17.2802416
  29.9912584  12.9262584 -16.8272416  28.4222584  28.9352584  -4.4332416
  28.0692584  29.4722584  -3.7232416  29.1412584  29.4552584  -4.7932416
  18.3852584  34.7312584 -17.8222416  18.4442584  35.6812584 -17.7202416
  18.8322584  34.3792584 -17.0532416  11.8802584  12.0452584  -7.0332416
  11.0272584  12.3842584  -7.3072416  12.4242584  12.8252584  -6.9262416
  21.7262584  27.9602584 -11.5732416  21.2142584  27.3952584 -10.9952416
  21.1002584  28.6142584 -11.8852416  12.1102584  22.5142584 -13.3262416
  12.4362584  21.7152584 -12.9112416  11.5892584  22.9422584 -12.6472416
  10.1932584  32.1552584 -14.3872416   9.7532584  31.5652584 -13.7752416
  10.9842584  31.6842584 -14.6492416  19.9202584  13.1762584  -6.3452416
  20.7492584  12.7102584  -6.4572416  19.5632584  12.8352584  -5.5242416
  18.4712584  17.0862584 -10.0302416  18.5342584  16.3772584  -9.3892416
  17.8662584  17.7132584  -9.6362416  14.5702584  37.2462584 -17.7002416
  13.8742584  36.7212584 -18.0952416  14.4802584  37.0942584 -16.7592416
  22.8832584  27.0412584 -14.8312416  23.0602584  27.0372584 -15.7712416
  23.4412584  26.3472584 -14.4792416  13.2002584   9.3142584 -14.9172416
  14.0492584   8.9052584 -15.0862416  13.3542584  10.2492584 -15.0492416
  16.6052584  17.1552584 -12.8162416  17.0942584  16.8892584 -12.0372416
  17.2122584  17.7162584 -13.2992416  15.8562584  31.5192584 -13.6532416
  16.3572584  31.1372584 -12.9322416  16.4982584  31.6442584 -14.3522416
  19.3842584  11.4612584 -12.7312416  19.7762584  11.9412584 -12.0012416
  20.0192584  10.7742584 -12.9362416  14.4582584  13.9212584  -8.6102416
  13.8432584  14.4992584  -9.0622416  14.8342584  13.3802584  -9.3042416
  11.6832584  12.7492584 -10.7692416  11.0122584  12.1112584 -10.5292416
  11.9452584  12.5012584 -11.6552416  25.3992584  19.6312584  -8.2882416
  25.9832584  19.5922584  -9.0452416  24.5222584  19.5282584  -8.6552416
  19.8092584  11.1762584 -16.7342416  19.4412584  11.5462584 -17.5362416
  20.4682584  11.8132584 -16.4562416  20.7982584  18.1272584 -16.2122416
  21.2752584  17.3802584 -15.8522416  21.4142584  18.8582584 -16.1492416
  17.8742584  19.7192584 -18.9052416  18.1562584  20.3992584 -19.5172416
  17.7872584  20.1732584 -18.0662416  13.3912584  37.2202584 -11.9882416
  12.8162584  37.7562584 -11.4432416  14.1322584  37.7912584 -12.1912416
  22.8322584  15.0462584 -10.3932416  22.8132584  15.0462584  -9.4362416
  23.7342584  15.2802584 -10.6142416  23.3562584  28.7622584  -9.5392416
  23.0902584  28.5382584 -10.4302416  22.9882584  28.0652584  -8.9962416
  26.0302584  28.1232584  -5.6912416  26.8462584  28.2422584  -5.2062416
  26.2362584  28.4052584  -6.5822416  29.3522584  20.4152584 -10.6862416
  29.3962584  21.3662584 -10.7782416  30.0112584  20.0832584 -11.2962416
   8.7692584  10.2712584  -7.0012416   8.8632584   9.8322584  -7.8462416
   8.9742584  11.1882584  -7.1822416  17.3362584  16.9782584 -16.4342416
  17.9932584  17.0392584 -17.1272416  17.7872584  17.2872584 -15.6482416
  17.1662584  10.0552584 -10.2142416  18.0792584  10.2182584 -10.4512416
  17.2092584   9.6892584  -9.3312416  19.7092584  17.8262584 -12.3362416
  20.1172584  17.3902584 -13.0852416  19.8112584  17.2072584 -11.6132416
  27.8752584  22.9892584  -8.5222416  27.6632584  23.4062584  -7.6872416
  27.0242584  22.7902584  -8.9132416  24.5272584   9.7492584  -2.0082416
  24.3392584  10.5992584  -1.6102416  23.7852584   9.1982584  -1.7602416
  20.6342584  24.6072584 -10.8762416  20.5722584  24.3752584 -11.8022416
  19.9732584  25.2882584 -10.7542416  15.6952584  12.5722584 -10.7682416
  16.0562584  12.8882584 -11.5962416  16.1742584  11.7622584 -10.5912416
  16.4152584  38.3922584   0.1737584  16.3142584  37.7532584  -0.5312416
  16.9662584  39.0792584  -0.2022416  11.3652584  16.4742584 -12.8222416
  10.7932584  16.7652584 -12.1122416  11.5162584  17.2602584 -13.3472416
  28.1242584  16.5562584  -1.5272416  27.6832584  16.8742584  -0.7392416
  28.4892584  17.3432584  -1.9322416  10.7402584  37.6292584  -4.9922416
  10.6462584  37.1652584  -5.8242416  11.2712584  38.3972584  -5.2042416
  14.8392584  24.0232584 -18.8192416  15.3312584  23.3402584 -18.3642416
  15.3432584  24.8232584 -18.6692416  16.9652584  11.3182584 -13.7392416
  17.8142584  11.1692584 -13.3212416  16.9932584  10.7892584 -14.5362416
  32.1382584  19.1432584   3.0537584  31.5992584  18.5742584   3.6027584
  31.5412584  19.8332584   2.7627584  26.9692584  25.4552584 -12.5872416
  26.8192584  26.2302584 -13.1272416  26.3232584  25.5232584 -11.8842416
  32.1202584  23.7542584  -9.7932416  32.5092584  23.0212584  -9.3152416
  32.5212584  23.7152584 -10.6612416  12.9352584  19.9842584  -7.0942416
  12.7032584  20.2032584  -6.1912416  13.7782584  20.4142584  -7.2352416
  36.2642584  10.8022584  -5.8002416  36.3832584  11.1572584  -4.9192416
  37.1532584  10.6612584  -6.1252416  21.1352584  36.1812584  -8.1752416
  20.8052584  36.0712584  -7.2832416  20.4062584  36.5772584  -8.6532416
  11.2742584  19.4062584  -9.1892416  10.5512584  20.0172584  -9.0522416
  11.8802584  19.5862584  -8.4692416   9.6632584  10.7032584  -9.8942416
   9.1142584  11.4412584 -10.1612416   9.0752584   9.9482584  -9.9132416
  16.6882584  24.3652584 -15.5062416  16.9592584  24.2332584 -14.5972416
  17.0992584  25.1912584 -15.7612416  19.5232584  31.8732584 -15.3482416
  18.7642584  31.3572584 -15.6192416  20.2682584  31.4402584 -15.7642416
  11.0492584  36.7012584 -13.2702416  10.7262584  37.5562584 -13.5552416
  11.9332584  36.8732584 -12.9482416  26.1842584  16.7812584 -13.4112416
  27.1022584  16.8122584 -13.1402416  26.0382584  15.8692584 -13.6602416
  12.9962584  24.5122584 -15.0682416  13.7882584  24.0762584 -15.3822416
  12.8112584  24.0952584 -14.2262416  22.8282584  20.0852584 -15.6572416
  23.6482584  19.6082584 -15.5342416  22.6572584  20.4932584 -14.8072416
  20.8142584  23.4922584  -8.1242416  20.0292584  23.8042584  -7.6742416
  20.6942584  23.7652584  -9.0332416  16.0812584  28.8502584 -17.7812416
  15.4762584  28.2122584 -17.4032416  15.9652584  29.6362584 -17.2472416
  20.6372584   8.9982584 -14.2552416  21.4542584   8.9772584 -13.7582416
  20.9112584   8.9442584 -15.1712416  15.3242584  25.7562584  -9.6962416
  15.3052584  26.6742584  -9.9692416  15.1902584  25.7852584  -8.7492416
  19.0542584  17.3052584 -18.5622416  18.6662584  18.1362584 -18.8342416
  19.9982584  17.4602584 -18.5882416  32.9692584  24.0112584  -3.7852416
  33.7882584  23.8862584  -4.2642416  33.0242584  23.3982584  -3.0522416
  21.9252584  13.4642584 -12.6442416  22.4812584  12.6882584 -12.7132416
  22.4612584  14.1032584 -12.1742416  34.6462584  20.9152584  -6.7292416
  34.1612584  20.0952584  -6.6422416  35.5092584  20.6512584  -7.0482416
  26.9972584  19.3872584 -10.5612416  27.9002584  19.6962584 -10.6392416
  26.4822584  20.0232584 -11.0582416  20.8692584  20.4742584 -11.0692416
  20.1512584  20.8812584 -10.5832416  20.5842584  19.5712584 -11.2062416
  11.6252584   8.4042584 -10.2282416  12.1472584   8.7632584  -9.5112416
  10.9012584   9.0222584 -10.3312416  10.3912584  23.7212584 -11.3852416
   9.7932584  23.8482584 -12.1212416   9.9192584  23.1412584 -10.7892416
  35.9952584  15.1862584  -4.2632416  35.7882584  14.7742584  -5.1012416
  35.1712584  15.5852584  -3.9822416  27.5472584   9.6262584  -4.9862416
  28.4382584   9.4992584  -5.3122416  27.5212584  10.5432584  -4.7112416
  20.1462584  26.6252584 -14.6692416  20.0192584  26.9122584 -13.7652416
  21.0792584  26.7612584 -14.8352416  12.4822584  25.0312584 -18.1362416
  13.3912584  24.8352584 -17.9072416  12.2882584  24.4452584 -18.8672416
  13.1542584   9.7302584  -8.5412416  13.9022584  10.3252584  -8.4972416
  12.3952584  10.2842584  -8.3572416  25.1192584  22.3292584  -5.2402416
  24.1662584  22.3492584  -5.1602416  25.4382584  22.5782584  -4.3722416
  25.1572584  13.2122584 -19.0462416  24.2452584  13.4802584 -18.9302416
  25.3912584  12.7932584 -18.2172416  13.2752584  20.1902584 -16.2542416
  12.4552584  20.6832584 -16.2912416  13.9132584  20.8122584 -15.9052416
  27.9782584  20.3942584  -1.7792416  28.5242584  19.6812584  -2.1102416
  28.1042584  21.1052584  -2.4082416  23.2892584  19.1812584  -9.7982416
  22.5002584  18.7922584  -9.4212416  23.5262584  18.5962584 -10.5172416
  19.0732584  20.3752584 -16.2402416  18.7892584  20.3972584 -15.3272416
  19.4772584  19.5142584 -16.3462416  23.9952584  29.0012584  -3.4112416
  24.7342584  28.4072584  -3.5422416  23.9132584  29.4702584  -4.2422416
  13.5752584  12.3122584 -13.1022416  14.0172584  12.5952584 -12.3022416
  13.9702584  12.8422584 -13.7952416  28.1862584  25.2512584 -17.8942416
  28.5432584  26.1252584 -18.0532416  27.5982584  25.3642584 -17.1482416
  34.3462584  21.5212584  -2.8502416  34.6942584  20.9352584  -2.1782416
  33.6642584  21.0092584  -3.2852416  35.6752584  19.3692584  -9.7392416
  36.0892584  19.6092584  -8.9102416  36.0952584  19.9322584 -10.3892416
  22.0922584  35.0032584 -10.5132416  22.0292584  35.2592584  -9.5922416
  22.0402584  34.0472584 -10.5002416  13.6252584  17.6752584  -9.7122416
  12.8472584  18.2302584  -9.7692416  13.3862584  16.8772584 -10.1842416
  25.1672584  18.6302584 -15.0402416  25.7572584  19.3742584 -14.9152416
  25.4192584  18.0072584 -14.3592416  17.7262584  13.2712584  -8.2952416
  17.6402584  13.9422584  -8.9732416  18.5732584  13.4492584  -7.8872416
  15.1952584  22.2352584 -15.0932416  15.8772584  22.8492584 -15.3642416
  15.1192584  22.3622584 -14.1472416  15.6992584  37.9842584 -14.6602416
  16.4532584  38.2502584 -15.1872416  15.8552584  38.3802584 -13.8032416
  11.2312584  35.6902584  -9.4272416  12.1662584  35.4822584  -9.4252416
  11.1932584  36.6212584  -9.6452416  25.0502584  14.2312584 -13.0602416
  25.9672584  14.0462584 -13.2622416  24.5612584  13.8412584 -13.7842416
  16.8432584  20.2762584 -11.5042416  17.5972584  20.7122584 -11.1072416
  16.4712584  19.7482584 -10.7982416  25.0342584  19.7672584   1.6927584
  24.7712584  18.9312584   2.0767584  24.2172584  20.2572584   1.5997584
  23.6002584  12.0632584  -0.3322416  24.3032584  12.7132584  -0.3352416
  23.3902584  11.9412584   0.5937584  15.0172584  18.1392584 -17.4782416
  15.8922584  17.8292584 -17.2462416  14.5632584  18.2282584 -16.6402416
  34.3262584  21.9242584 -12.8042416  33.4062584  22.1582584 -12.9262416
  34.7242584  22.7082584 -12.4262416  22.8922584  22.0802584   2.1287584
  22.1222584  22.6462584   2.0727584  22.9382584  21.8282584   3.0507584
  12.5692584  14.2852584 -14.8402416  13.1312584  15.0272584 -15.0632416
  12.3202584  14.4382584 -13.9282416  28.6932584  29.3252584   2.2827584
  28.7232584  30.2792584   2.2087584  28.4102584  29.0272584   1.4187584
  27.5012584  21.1162584   2.1397584  26.7592584  21.1412584   2.7427584
  27.2272584  21.6572584   1.3987584  30.7802584  19.7102584 -16.0392416
  29.8882584  20.0562584 -16.0572416  31.3052584  20.3782584 -16.4802416
  25.6102584  23.2052584   1.3457584  26.0332584  23.6262584   2.0947584
  24.7182584  23.0262584   1.6437584  27.3202584  25.8482584  -2.1232416
  28.0502584  26.4512584  -2.2622416  27.4582584  25.5032584  -1.2412416
  24.2522584  12.7252584 -15.6862416  24.5162584  11.8622584 -15.3672416
  23.5262584  12.5472584 -16.2852416  19.3362584  21.4842584   4.1007584
  19.9892584  21.5912584   3.4087584  19.0212584  22.3712584   4.2727584
  36.0242584  15.7062584 -17.0922416  36.0632584  15.4122584 -16.1822416
  36.7332584  15.2312584 -17.5272416  25.0302584  14.2352584  -1.0282416
  25.9332584  14.0542584  -1.2912416  24.9792584  15.1902584  -0.9852416
  28.7702584  18.5272584  -5.8222416  27.9952584  18.9492584  -5.4512416
  28.8932584  18.9532584  -6.6702416  21.8732584  37.6732584   7.3207584
  22.5662584  38.2062584   6.9297584  21.5312584  38.2112584   8.0347584
  12.8672584  32.0542584 -19.2982416  13.2882584  32.3032584 -18.4752416
  13.5772584  31.6992584 -19.8322416  10.2212584  26.7022584 -17.9472416
  10.3502584  27.6502584 -17.9182416  11.0662584  26.3532584 -18.2282416
  10.7482584  21.2162584 -16.1052416   9.9152584  20.8482584 -15.8082416
  10.6552584  22.1592584 -15.9692416  27.3092584  12.2712584  -4.3532416
  27.8012584  12.9352584  -4.8362416  26.4572584  12.2402584  -4.7882416
  16.3432584  38.1232584   3.1237584  17.1282584  38.6682584   3.1737584
  16.3612584  37.7562584   2.2397584  17.3132584  10.1972584 -15.9682416
  16.7632584  10.2682584 -16.7492416  18.1672584  10.5282584 -16.2462416
  31.9612584  14.5042584  -2.2342416  31.0222584  14.4642584  -2.4162416
  32.3752584  14.1752584  -3.0322416  14.9952584  24.9782584 -12.3162416
  14.8082584  24.0482584 -12.1912416  15.0262584  25.3392584 -11.4302416
  36.1272584   8.3392584   7.9877584  36.4972584   9.0832584   8.4627584
  36.6522584   8.2782584   7.1897584  20.2272584  22.8362584 -16.1392416
  20.6232584  23.1112584 -16.9652416  19.7952584  22.0072584 -16.3442416
  14.4042584  16.4402584 -13.9942416  13.8352584  17.1922584 -13.8292416
  15.1622584  16.5832584 -13.4282416  37.3092584  16.5992584  -7.9582416
  37.3862584  15.6852584  -8.2332416  36.4872584  16.8982584  -8.3462416
  28.2582584  18.0742584 -17.3662416  28.7262584  17.4512584 -16.8112416
  28.7382584  18.0652584 -18.1952416  12.0882584  27.2872584 -12.8892416
  12.4852584  28.1322584 -12.6762416  12.6022584  26.9602584 -13.6272416
   8.0712584  37.5672584 -18.1632416   8.3712584  38.0792584 -18.9142416
   8.2312584  36.6572584 -18.4132416  23.3452584  25.2692584 -12.4672416
  22.6402584  24.9752584 -13.0452416  22.9032584  25.5112584 -11.6532416
  22.6362584   8.5952584  -6.1512416  23.3012584   7.9452584  -5.9222416
  22.7812584   9.3142584  -5.5372416  31.2202584  27.8142584   2.0297584
  31.4782584  26.9302584   2.2917584  30.3652584  27.9462584   2.4407584
  21.5892584  26.6292584  -8.6402416  21.5642584  26.5772584  -7.6852416
  21.4802584  25.7232584  -8.9322416  21.8262584  31.5772584  -9.2142416
  22.0142584  32.0422584 -10.0302416  21.9492584  30.6532584  -9.4312416
  16.9092584  25.6982584 -18.7362416  17.6742584  25.3232584 -19.1722416
  17.2712584  26.1952584 -18.0022416  16.8362584  36.2612584   5.5917584
  16.6502584  36.0112584   4.6867584  17.5832584  36.8562584   5.5277584
  21.5802584  29.3692584 -18.3292416  20.7102584  29.6542584 -18.6082416
  22.0422584  29.1752584 -19.1442416  27.0212584  24.1832584  -6.2932416
  27.7802584  24.1352584  -5.7122416  26.4872584  23.4252584  -6.0542416
  35.6262584   9.7512584  -1.6082416  35.5692584   8.8272584  -1.3642416
  35.5722584  10.2222584  -0.7762416  34.1232584  20.3422584 -17.5192416
  34.1142584  20.9172584 -16.7532416  34.8272584  19.7182584 -17.3442416
  23.0272584  11.7452584 -17.8872416  23.5862584  10.9692584 -17.9252416
  22.6822584  11.8362584 -18.7752416  23.1042584  36.0792584   1.5497584
  22.6542584  35.3812584   1.0737584  22.4912584  36.3332584   2.2387584
  24.8302584  38.5082584   3.2707584  24.6212584  37.8082584   2.6527584
  24.5012584  38.1912584   4.1117584  24.0922584  38.3782584 -13.7022416
  23.9432584  37.6432584 -13.1062416  23.8092584  38.0542584 -14.5572416
  17.0232584  35.6632584 -13.9792416  16.1262584  35.8812584 -14.2332416
  17.5612584  35.9772584 -14.7062416  25.6222584  37.8302584   8.9487584
  25.1362584  37.0122584   8.8457584  25.9232584  37.8182584   9.8577584
   8.3152584  14.4882584  -9.7392416   7.8422584  14.7552584 -10.5272416
   9.1142584  15.0152584  -9.7482416  18.2802584  34.1412584 -12.0552416
  18.0872584  34.6232584 -11.2522416  17.9532584  34.7042584 -12.7572416
  21.1602584  23.9662584 -13.5892416  21.3112584  23.0282584 -13.7032416
  20.5762584  24.2042584 -14.3092416   9.3612584  13.1112584  -7.2902416
   8.8852584  13.4522584  -8.0472416   9.0372584  13.6252584  -6.5512416
  21.0532584  15.1732584 -16.9102416  20.2612584  15.6362584 -17.1862416
  20.7442584  14.5282584 -16.2742416  12.1932584  37.9542584  -1.1362416
  12.3272584  38.1032584  -0.2002416  11.8082584  38.7702584  -1.4562416
  17.6992584  28.3012584 -13.2702416  17.0492584  27.9482584 -13.8772416
  17.1882584  28.8122584 -12.6422416  20.2842584  13.5602584 -14.7162416
  20.8762584  13.5512584 -13.9642416  19.5912584  12.9422584 -14.4832416
   7.2312584  29.9122584 -14.6812416   8.1242584  29.5892584 -14.7972416
   6.6832584  29.2712584 -15.1352416  22.9542584  34.3162584 -14.6342416
  22.8342584  33.5342584 -15.1742416  22.1132584  34.4332584 -14.1912416
  21.4112584  28.7632584  -6.1892416  21.6542584  29.6502584  -6.4552416
  22.2382584  28.3532584  -5.9352416  12.9912584  29.8312584 -12.6152416
  13.6472584  30.2142584 -12.0332416  12.1752584  29.8692584 -12.1162416
  37.2022584  30.3762584  10.4757584  36.5072584  30.4542584  11.1297584
  37.1372584  29.4752584  10.1617584  24.6782584  36.1062584 -11.6402416
  23.8322584  35.7232584 -11.4102416  25.0652584  35.4832584 -12.2552416
   9.5032584  27.2212584 -13.8562416   8.8562584  27.0602584 -13.1682416
  10.3482584  27.0862584 -13.4272416  21.4992584  37.2162584 -12.0082416
  21.9492584  36.5812584 -11.4522416  21.1602584  36.6982584 -12.7382416
  31.5122584  33.1502584  -5.2742416  32.0902584  32.4172584  -5.4822416
  31.7422584  33.8262584  -5.9122416  13.6892584  27.3382584 -17.0002416
  13.0972584  27.9532584 -17.4332416  13.1902584  26.5232584 -16.9452416
  14.4582584  31.5232584 -15.9882416  14.7662584  32.2862584 -16.4762416
  14.8392584  31.6262584 -15.1162416  22.6382584  33.5352584  -5.3662416
  23.4392584  33.6452584  -5.8782416  22.2742584  32.7022584  -5.6662416
  16.3602584  13.8722584 -13.6322416  16.0442584  14.1052584 -14.5052416
  16.6122584  12.9522584 -13.7052416  10.4402584  23.9182584 -16.1702416
  10.8292584  24.5762584 -16.7462416  10.9932584  23.9262584 -15.3892416
  11.3722584  26.2152584 -10.4512416  11.4242584  26.5962584 -11.3272416
  10.7852584  25.4662584 -10.5492416  18.3572584  37.7972584  -5.2812416
  19.1532584  37.4562584  -4.8732416  18.0222584  38.4402584  -4.6552416
  18.4642584  37.8582584 -18.6262416  18.3372584  37.5352584 -19.5182416
  17.9192584  38.6442584 -18.5762416  13.8982584  33.3012584 -12.3562416
  14.5072584  32.8182584 -12.9142416  13.2452584  33.6532584 -12.9612416
   7.9742584  26.2122584 -16.3102416   8.5682584  26.2672584 -15.5612416
   8.4992584  26.5032584 -17.0552416  17.1622584  33.9392584  -7.8652416
  17.2542584  34.6382584  -7.2172416  16.7242584  34.3572584  -8.6072416
  20.0492584  10.4862584  -9.7722416  20.8272584   9.9902584  -9.5162416
  19.8322584  11.0082584  -9.0002416  18.0992584  30.7062584 -17.4352416
  18.0642584  29.8222584 -17.8012416  17.6272584  31.2472584 -18.0682416
   7.8082584  23.1772584 -16.9472416   7.1792584  23.8882584 -16.8282416
   8.6592584  23.5772584 -16.7702416  23.0462584  32.3172584 -11.4412416
  23.1072584  32.2072584 -12.3902416  23.9502584  32.4442584 -11.1552416
  18.8232584  31.6932584  -8.1552416  19.1072584  31.6872584  -9.0692416
  18.1432584  32.3662584  -8.1192416  27.2792584  11.4662584 -17.9622416
  27.6262584  10.7822584 -18.5352416  26.4182584  11.1422584 -17.6972416
  35.3702584  10.8562584   0.7707584  34.5682584  10.6432584   1.2487584
  35.6222584  11.7202584   1.0957584  26.4142584  37.3362584 -10.0732416
  25.8752584  37.7242584  -9.3842416  25.7912584  37.0962584 -10.7592416
  13.9322584  32.6122584  -9.3952416  14.0322584  33.5202584  -9.1102416
  14.0622584  32.6422584 -10.3432416  33.5312584  16.9552584  -4.6732416
  33.1252584  17.8222584  -4.6532416  32.7932584  16.3452584  -4.6802416
  10.2992584  30.3802584 -11.2002416  10.6122584  31.1372584 -10.7042416
   9.3452584  30.4572584 -11.1792416  14.2552584  29.8842584 -10.1032416
  14.4562584  30.6462584  -9.5592416  13.7422584  29.3112584  -9.5332416
  19.2592584  37.3212584  -9.6762416  18.4212584  36.9732584  -9.9822416
  19.7142584  37.5872584 -10.4752416  18.0592584  26.9062584 -16.6162416
  17.8652584  27.8382584 -16.5112416  18.7552584  26.7332584 -15.9812416
  20.8372584   8.8772584 -17.5332416  20.0562584   8.6542584 -18.0392416
  20.8422584   9.8342584 -17.5072416  10.3672584   9.0172584 -14.8062416
  11.3222584   9.0842584 -14.8122416  10.0712584   9.8422584 -14.4222416
  16.6142584  29.8892584 -11.4062416  16.0102584  29.9162584 -10.6642416
  17.4042584  30.3272584 -11.0882416  36.0482584  32.3472584  -8.9182416
  35.3262584  31.7242584  -9.0082416  35.7392584  32.9812584  -8.2712416
  32.6572584  33.6052584 -10.7972416  31.7702584  33.8532584 -11.0562416
  33.0942584  33.3842584 -11.6202416  31.6692584  29.2622584  -0.3562416
  32.5132584  29.5262584  -0.7232416  31.8952584  28.6702584   0.3617584
  20.1442584   9.7392584  -6.8452416  20.7672584   9.0392584  -6.6482416
  19.3002584   9.3982584  -6.5502416  37.0362584  35.3302584 -10.4312416
  36.4302584  34.6322584 -10.6842416  37.6252584  34.9182584  -9.7992416
  20.4672584  34.4552584 -13.8162416  20.2712584  34.2892584 -12.8942416
  19.7062584  34.1182584 -14.2882416  21.1612584  31.6302584  -6.6292416
  20.2542584  31.5522584  -6.9272416  21.6682584  31.7462584  -7.4322416
  36.0122584  37.3972584   0.1677584  36.5432584  37.2322584   0.9467584
  35.1102584  37.2732584   0.4617584  23.8592584  20.7172584 -18.1832416
  23.3372584  21.4722584 -18.4562416  23.4252584  20.3992584 -17.3912416
  21.6942584  21.2862584 -13.5082416  21.5662584  21.1082584 -12.5762416
  20.8112584  21.2752584 -13.8782416  18.0892584  28.1842584  -9.4432416
  17.2972584  28.2412584  -8.9092416  18.8032584  28.3672584  -8.8322416
  26.2192584  23.1322584 -13.7742416  26.3722584  23.9752584 -13.3482416
  26.0152584  22.5342584 -13.0552416  13.9622584  36.9072584  -5.1472416
  14.5532584  37.6402584  -4.9732416  13.1572584  37.1322584  -4.6812416
  34.5462584   8.7442584  -6.5472416  34.7032584   8.1072584  -5.8502416
  35.1302584   9.4742584  -6.3412416  19.3062584  26.7832584 -11.6432416
  18.9382584  27.0112584 -10.7892416  18.7582584  27.2522584 -12.2732416
  31.8562584  28.0092584  -6.8952416  32.0982584  27.3002584  -6.3002416
  31.3842584  27.5752584  -7.6062416   8.6472584  38.1452584  -3.4872416
   8.6262584  39.0962584  -3.3762416   9.4782584  37.9742584  -3.9302416
  32.4132584  23.3002584 -18.0272416  32.5112584  22.5202584 -18.5742416
  31.6302584  23.7352584 -18.3682416  26.0612584  36.0442584 -16.0312416
  26.9202584  35.7622584 -15.7182416  25.4462584  35.7112584 -15.3782416
  15.5512584  12.6122584 -17.5202416  15.6422584  13.2552584 -16.8172416
  14.7302584  12.1582584 -17.3262416  18.3952584  37.1972584 -15.9112416
  18.4052584  38.0282584 -15.4352416  18.7982584  37.4002584 -16.7562416
  17.4042584  36.8682584  -7.4182416  18.2012584  36.7302584  -7.9302416
  17.7162584  37.0382584  -6.5292416   8.8742584  36.8842584 -11.7982416
   9.5432584  36.3752584 -12.2542416   8.0892584  36.3382584 -11.8362416
  33.1172584  31.1952584  -6.1762416  32.9212584  31.1782584  -7.1132416
  33.2752584  30.2802584  -5.9462416  26.5032584  35.1112584  -5.3482416
  26.8042584  35.3092584  -4.4612416  26.5552584  34.1572584  -5.4122416
  10.5472584  33.1432584 -10.3142416  10.9492584  33.9792584 -10.0792416
   9.7112584  33.3832584 -10.7152416   8.6062584  35.1892584 -18.9842416
   9.3822584  35.5022584 -19.4492416   8.4282584  34.3302584 -19.3662416
  36.8022584  36.3022584  -4.0572416  37.2982584  35.5682584  -4.4212416
  37.4582584  36.9812584  -3.8992416  29.5592584  23.0642584 -10.6922416
  28.9332584  23.1002584  -9.9692416  30.3312584  23.5262584 -10.3642416
  20.1492584  29.8002584 -13.0162416  20.6792584  30.2402584 -13.6812416
  19.5962584  29.1952584 -13.5112416  10.6342584  14.6152584 -17.4752416
  11.1962584  15.2822584 -17.8702416  11.1692584  14.2332584 -16.7792416
  24.2052584  32.0322584 -19.2812416  24.6602584  32.8022584 -18.9402416
  23.3342584  32.3522584 -19.5172416  25.4522584  21.0322584 -11.9442416
  24.9002584  20.4042584 -12.4102416  24.8522584  21.4842584 -11.3512416
   7.3302584  11.9932584 -13.5432416   7.1852584  11.0792584 -13.7852416
   7.2662584  12.0012584 -12.5882416  27.0972584   8.7252584   6.9347584
  26.5002584   8.4872584   7.6437584  27.4892584   9.5512584   7.2177584
  33.5692584  31.5822584   2.7667584  33.1002584  32.2752584   2.3027584
  34.4352584  31.5642584   2.3597584  11.9412584  34.8642584 -17.2992416
  12.0242584  34.1432584 -16.6752416  11.1212584  35.2952584 -17.0612416
  30.5652584  37.7882584  -2.4092416  30.5012584  36.8332584  -2.3942416
  30.1882584  38.0402584  -3.2512416  23.6042584  36.3652584  -3.3402416
  23.9862584  36.8872584  -2.6362416  24.1752584  36.5222584  -4.0932416
  12.7112584  29.2982584 -18.7462416  11.8062584  29.3372584 -19.0562416
  13.0622584  30.1712584 -18.9202416  30.5342584  33.8022584   6.8887584
  31.0672584  34.2192584   6.2107584  29.8372584  34.4332584   7.0667584
  28.2932584  35.6312584   6.8977584  27.9452584  35.7732584   6.0177584
  28.5432584  36.5042584   7.2007584  21.8912584  34.2182584   0.2627584
  22.0212584  34.2282584  -0.6862416  21.8302584  33.2902584   0.4867584
  18.8512584  37.9222584   5.7427584  18.7132584  38.7102584   6.2687584
  19.7872584  37.7392584   5.8257584  31.7142584  25.4352584   3.0087584
  32.3142584  24.7412584   3.2817584  30.8862584  25.2212584   3.4377584
  21.7952584  37.2382584   4.1297584  22.3422584  36.7972584   4.7807584
  21.8422584  38.1642584   4.3647584  24.4292584  34.2742584   4.8497584
  25.1852584  34.1912584   4.2687584  23.8372584  33.5742584   4.5747584
  23.5762584  33.4622584  -2.8572416  23.1742584  33.4132584  -3.7242416
  23.8872584  34.3642584  -2.7872416  15.9262584  33.7202584 -16.5962416
  16.6462584  33.7902584 -17.2222416  15.4862584  34.5692584 -16.6412416
  33.9642584  12.0992584   3.3467584  33.9662584  11.2712584   3.8267584
  34.5482584  12.6682584   3.8467584  18.5312584  37.3862584   8.5177584
  17.5812584  37.3802584   8.3997584  18.8842584  37.2312584   7.6417584
  12.0622584  30.4402584 -14.8872416  12.6772584  30.7712584 -15.5422416
  12.5812584  30.3692584 -14.0852416   8.3772584  32.3022584 -17.0982416
   8.8972584  31.8062584 -17.7302416   8.8152584  32.1562584 -16.2602416
  28.8392584  34.2922584  -0.1322416  29.0772584  33.9232584  -0.9822416
  28.3312584  33.6012584   0.2947584  33.6942584  31.8442584 -15.4902416
  34.4612584  31.7302584 -16.0512416  33.3462584  32.7022584 -15.7312416
  19.3002584  36.7712584   2.7717584  20.0562584  36.7822584   3.3587584
  19.1072584  37.6952584   2.6117584  25.6802584  16.4622584 -17.7732416
  26.3932584  16.8162584 -17.2422416  25.2442584  17.2342584 -18.1352416
  21.6462584  29.3442584 -15.6022416  21.5612584  29.2012584 -16.5452416
  22.2162584  28.6362584 -15.3032416  14.3332584  35.9812584  -1.6962416
  14.0222584  35.7102584  -2.5602416  13.7342584  36.6802584  -1.4342416
  32.2872584  11.4472584   6.0237584  31.9532584  11.1282584   5.1857584
  32.8302584  10.7312584   6.3537584  22.9912584  37.1572584 -16.1272416
  22.8552584  36.2312584 -16.3272416  22.3232584  37.6142584 -16.6382416
  16.2792584   9.6102584 -18.2052416  15.5952584   8.9402584 -18.2292416
  15.8662584  10.3882584 -18.5782416  15.2262584  37.6022584  -8.8432416
  15.8052584  37.2802584  -8.1532416  14.7042584  38.2832584  -8.4192416
  21.8642584  16.2302584 -14.0252416  22.5562584  16.1092584 -14.6752416
  21.5932584  15.3412584 -13.7962416  19.4362584  14.7802584 -11.5032416
  20.2572584  14.3532584 -11.7462416  18.7702584  14.3362584 -12.0282416
  32.1542584  23.5512584 -12.9652416  31.2652584  23.7782584 -13.2392416
  32.6852584  24.3042584 -13.2232416  26.5702584  15.9802584  -6.5882416
  26.7572584  16.4132584  -7.4212416  26.1732584  16.6622584  -6.0462416
  37.1322584  21.3672584   0.7767584  36.4342584  21.9832584   0.5527584
  36.7422584  20.5042584   0.6377584  30.6302584  16.5342584  -4.7802416
  30.2562584  16.9022584  -5.5812416  30.2642584  15.6512584  -4.7282416
  34.6722584  12.4282584  -8.7272416  34.5302584  12.7282584  -9.6242416
  34.9072584  11.5042584  -8.8162416  31.0352584  16.3452584  -8.2472416
  30.4582584  16.9192584  -8.7502416  31.6962584  16.0582584  -8.8772416
  31.3332584   9.7842584  -8.4382416  30.4172584   9.9032584  -8.1882416
  31.3032584   9.1762584  -9.1762416  26.5812584  20.4582584 -17.6722416
  25.6382584  20.5532584 -17.8072416  26.7542584  19.5312584 -17.8392416
  25.8162584  13.3242584  -6.8722416  26.3862584  12.9172584  -7.5252416
  26.1902584  14.1952584  -6.7362416  35.4142584  31.7572584  -4.5122416
  34.7572584  31.8872584  -5.1952416  36.2292584  31.5992584  -4.9902416
  34.9542584  11.2192584 -15.4312416  35.4092584  10.4522584 -15.7792416
  34.2342584  11.3692584 -16.0432416  23.0632584  15.4512584 -18.7202416
  22.3962584  15.2862584 -18.0532416  23.6502584  16.0912584 -18.3192416
  33.1332584  13.8702584  -4.6122416  33.3522584  14.2732584  -5.4522416
  32.9562584  12.9542584  -4.8242416  32.6442584  15.4042584 -13.8812416
  32.0792584  14.6412584 -14.0022416  32.9572584  15.6132584 -14.7622416
  25.6592584  32.2382584 -10.1922416  26.0312584  33.0502584 -10.5342416
  26.1082584  31.5452584 -10.6762416  23.9012584  15.4402584 -15.4942416
  24.3902584  15.9492584 -16.1412416  23.9782584  14.5342584 -15.7942416
  32.4902584  14.0512584   0.3587584  33.3652584  13.7162584   0.1627584
  32.1152584  14.2582584  -0.4972416  12.6242584  17.3592584  -6.0342416
  11.7382584  17.2782584  -5.6822416  12.6002584  18.1572584  -6.5632416
  36.7262584   9.1342584 -16.0042416  37.3892584   9.1972584 -16.6912416
  36.3362584   8.2682584 -16.1262416  26.3142584  19.7552584  -5.5442416
  25.9242584  19.8332584  -6.4152416  25.9562584  20.4942584  -5.0532416
  30.6442584  25.0482584  -1.4602416  30.2032584  25.6802584  -2.0282416
  30.0362584  24.9142584  -0.7332416   8.4362584  33.8162584  -8.2912416
   9.0772584  33.2332584  -8.6982416   7.6342584  33.2962584  -8.2432416
   7.7522584  11.8712584 -17.2742416   8.0972584  12.3762584 -18.0102416
   6.8132584  11.8042584 -17.4482416  32.6462584  31.4352584 -13.0332416
  33.3572584  31.0262584 -12.5392416  33.0192584  31.5992584 -13.8992416
  27.0222584  20.5962584 -14.5402416  27.4812584  20.7562584 -13.7162416
  26.7482584  21.4642584 -14.8352416  32.7542584  19.5662584  -3.9052416
  32.3122584  19.0312584  -3.2462416  32.0522584  20.0762584  -4.3102416
   8.8892584  22.9972584 -13.7262416   8.2672584  22.9472584 -14.4532416
   8.9552584  22.0982584 -13.4052416  33.9362584  12.0482584  -1.5182416
  33.6592584  12.5172584  -2.3052416  33.2402584  11.4112584  -1.3602416
  28.8192584  27.9212584 -18.1772416  29.5972584  27.5172584 -17.7942416
  28.5792584  28.6132584 -17.5612416  36.4112584  32.2002584 -13.5422416
  36.5592584  32.7532584 -14.3092416  36.6242584  31.3152584 -13.8392416
  28.4602584   9.1902584 -10.7972416  28.5932584   9.5342584  -9.9142416
  27.7852584   8.5192584 -10.6932416  34.2142584   9.0492584   3.9757584
  33.3052584   8.8072584   3.7967584  34.6522584   8.2182584   4.1597584
  34.2482584  28.7852584  -5.8472416  33.3992584  28.5002584  -6.1842416
  34.6262584  27.9992584  -5.4532416  30.5562584  13.4792584  -7.5652416
  30.9582584  14.3152584  -7.8032416  31.2972584  12.8992584  -7.3872416
  32.1692584   9.4632584   0.7327584  31.8662584   9.8312584  -0.0972416
  31.6692584   9.9322584   1.4007584  29.7252584  32.3472584  -3.1112416
  30.5132584  32.2602584  -2.5752416  30.0522584  32.5012584  -3.9972416
  33.5152584  15.9272584   4.5617584  33.4952584  15.1872584   5.1677584
  34.2982584  16.4192584   4.8097584   7.3672584  20.2672584  -7.7742416
   7.6342584  20.0392584  -6.8842416   8.0932584  20.7872584  -8.1172416
  32.9302584  27.5802584 -11.2002416  32.0432584  27.5622584 -10.8412416
  33.3802584  26.8582584 -10.7632416  23.8472584  18.0032584 -12.2802416
  23.4792584  17.5362584 -13.0312416  24.7512584  17.6952584 -12.2252416
  25.5362584  34.1812584 -13.3372416  26.0592584  33.4342584 -13.6292416
  24.7902584  34.2002584 -13.9362416  11.9862584  34.2472584 -14.1322416
  11.5462584  35.0712584 -13.9202416  11.2732584  33.6292584 -14.2922416
  30.4352584  31.6002584  -8.8882416  30.1642584  32.1592584  -9.6172416
  29.7442584  30.9412584  -8.8232416  32.9312584  34.9482584  -3.3802416
  32.7332584  34.0532584  -3.6542416  32.0792584  35.3272584  -3.1642416
   7.2242584  14.7692584 -12.0912416   6.6462584  14.3282584 -12.7152416
   7.9022584  15.1712584 -12.6352416  19.2342584  12.2232584 -19.0712416
  18.6422584  12.9462584 -19.2782416  19.9092584  12.2642584 -19.7492416
  31.6532584  10.5212584  -1.8142416  31.8912584  10.6182584  -2.7362416
  31.1132584   9.7312584  -1.7872416  34.8672584  15.6642584   9.1127584
  35.3862584  16.4382584   8.8927584  34.7072584  15.2342584   8.2727584
  28.4272584  10.1642584  -8.3302416  28.2502584  10.1822584  -7.3902416
  28.2912584  11.0672584  -8.6172416  29.3102584  14.6582584  -2.9192416
  28.7692584  15.2522584  -2.3992416  28.8742584  14.6182584  -3.7702416
  35.1882584   9.9782584 -10.0842416  34.8622584   9.2082584  -9.6192416
  34.7792584   9.9282584 -10.9482416  28.7652584  24.5222584   0.0807584
  28.4522584  24.9892584   0.8547584  29.2212584  23.7562584   0.4297584
  31.7822584  21.2382584  -1.3212416  32.5242584  20.7262584  -1.6442416
  32.1822584  21.9532584  -0.8252416  37.0602584  30.9192584   4.3387584
  37.7132584  30.4452584   3.8247584  36.3162584  31.0232584   3.7447584
  30.1652584  38.2052584 -12.7002416  29.5112584  38.5422584 -12.0882416
  30.8372584  37.8132584 -12.1412416  37.2252584  17.7902584 -12.0332416
  36.2892584  17.6882584 -11.8612416  37.3652584  17.3452584 -12.8682416
  29.4502584  20.7962584  -7.8972416  28.9452584  21.5882584  -8.0812416
  29.4012584  20.2872584  -8.7062416  35.1872584  17.3692584  -0.6672416
  36.0782584  17.2212584  -0.3482416  34.6352584  16.8422584  -0.0892416
  33.1282584  29.5332584   9.5557584  32.6232584  29.4522584   8.7477584
  33.6302584  30.3412584   9.4457584   9.8302584  17.3612584 -10.7462416
  10.2532584  17.5632584  -9.9112416   8.9642584  17.7622584 -10.6792416
  34.6972584  14.3922584  -6.7042416  34.8282584  13.5672584  -7.1722416
  34.6262584  15.0512584  -7.3952416  13.2592584  11.9392584 -16.0452416
  12.9062584  12.8032584 -15.8312416  12.5692584  11.5202584 -16.5602416
  27.3562584  11.6832584 -12.2062416  27.9822584  11.1172584 -11.7532416
  26.6222584  11.7642584 -11.5982416  24.0412584  38.0962584  -8.7602416
  23.5142584  37.5102584  -8.2172416  23.4722584  38.3192584  -9.4962416
  13.0802584  18.7152584 -14.0162416  12.8292584  19.2712584 -13.2782416
  13.0662584  19.3002584 -14.7732416  29.2442584  36.2822584   1.9977584
  29.4852584  35.7472584   1.2417584  29.6012584  37.1492584   1.8017584
  33.1982584  36.8852584   1.1967584  32.5812584  36.3032584   0.7517584
  32.8722584  37.7662584   1.0117584  23.1452584  24.3792584 -18.7052416
  22.2632584  24.0412584 -18.5522416  23.5842584  23.6872584 -19.2002416
  29.3582584  16.2022584 -10.7452416  30.2722584  15.9182584 -10.7772416
  29.3212584  16.9582584 -11.3312416  31.5802584  19.3322584 -12.1422416
  31.8882584  19.7792584 -11.3542416  32.2922584  19.4402584 -12.7732416
  27.6602584  36.0322584  -2.8782416  27.2082584  36.8422584  -2.6402416
  27.1062584  35.3352584  -2.5282416  24.3732584  32.9202584  -7.7862416
  24.3272584  32.5262584  -8.6572416  25.0702584  33.5732584  -7.8542416
  34.3042584  16.3572584  -8.6212416  33.8632584  17.0942584  -8.1982416
  34.4792584  16.6622584  -9.5122416  31.6242584  16.6672584 -19.2142416
  32.1932584  17.2672584 -19.6962416  32.1432584  16.4032584 -18.4542416
  34.8582584  26.2682584   1.0537584  34.2032584  26.3552584   1.7467584
  34.9862584  27.1602584   0.7307584  27.6392584  14.1592584 -13.4292416
  27.8832584  13.3732584 -12.9412416  28.4742584  14.5342584 -13.7122416
  30.2342584  34.1332584 -11.6322416  29.4102584  34.5492584 -11.8852416
  30.2522584  33.3142584 -12.1272416  22.2642584  11.5442584  -7.4072416
  23.1242584  11.1362584  -7.5102416  21.7702584  10.9302584  -6.8632416
   8.3972584  26.7662584 -11.2212416   8.9802584  26.8942584 -10.4722416
   7.6072584  26.3762584 -10.8472416  32.5222584  21.9372584  -7.7992416
  32.2262584  22.6652584  -7.2532416  33.3122584  21.6172584  -7.3632416
  34.3052584  36.2902584  -5.0802416  33.8232584  35.7832584  -4.4272416
  35.2032584  36.3152584  -4.7502416  31.9812584  10.5492584 -13.4812416
  31.3772584   9.8062584 -13.4682416  32.8512584  10.1502584 -13.4762416
  26.6112584  23.6022584  -3.2872416  27.4262584  23.1072584  -3.3742416
  26.8932584  24.4882584  -3.0592416  34.9592584  22.0332584 -15.5332416
  34.9322584  22.2762584 -14.6082416  35.0942584  22.8612584 -15.9952416
  31.6982584  12.2202584 -11.0432416  31.8592584  11.5602584 -11.7172416
  32.5622584  12.3972584 -10.6692416  35.0852584  24.3942584 -17.5662416
  34.2562584  23.9292584 -17.6852416  35.4632584  24.4382584 -18.4442416
  28.6142584  14.3932584  -5.6542416  27.9382584  14.8882584  -6.1172416
  29.2322584  14.1342584  -6.3382416  11.5992584  19.3042584 -18.3322416
  10.8932584  19.8772584 -18.0332416  12.3172584  19.4682584 -17.7202416
  25.1422584  25.6092584  -8.0842416  25.0992584  24.6732584  -8.2812416
  26.0112584  25.7322584  -7.7002416  32.6742584  20.3982584  -9.9742416
  32.3132584  20.9462584  -9.2772416  33.4732584  20.0282584  -9.5992416
  34.4312584  13.4042584 -11.3192416  34.5842584  14.3252584 -11.1062416
  34.7542584  13.3092584 -12.2152416  31.3322584  17.4052584   4.9957584
  30.6562584  16.8642584   4.5887584  32.1142584  16.8532584   4.9957584
  23.9792584  26.8552584 -17.6992416  23.9152584  25.9642584 -18.0432416
  24.6062584  27.2902584 -18.2762416  30.0422584  22.0062584   0.5797584
  30.7542584  21.7052584   0.0147584  29.3002584  21.4472584   0.3487584
  30.4522584   8.9032584  -5.1552416  30.8972584   8.1962584  -5.6222416
  31.1422584   9.5392584  -4.9682416  15.7072584  27.3592584 -14.6862416
  15.6382584  26.4292584 -14.4702416  15.0672584  27.4912584 -15.3852416
   8.1082584  20.6322584 -15.8672416   7.9602584  21.2942584 -16.5422416
   7.4382584  19.9682584 -16.0312416  23.4552584  14.0972584  -7.5752416
  24.3492584  13.7872584  -7.4352416  22.9202584  13.3042584  -7.5542416
  32.4542584  10.9562584  -4.2302416  33.3532584  10.6322584  -4.1662416
  32.3062584  11.0692584  -5.1692416  33.2302584  18.2042584  -6.9592416
  33.5462584  17.5362584  -6.3502416  32.2932584  18.2722584  -6.7752416
  30.2142584  16.8682584 -15.8752416  30.4082584  17.8042584 -15.9302416
  30.6312584  16.5842584 -15.0612416  25.5902584  10.2012584 -14.8732416
  25.3652584   9.4662584 -14.3032416  26.5462584  10.2412584 -14.8462416
  35.1822584  17.6472584   6.0387584  35.7732584  17.6982584   6.7897584
  34.6692584  18.4542584   6.0817584  36.6012584  28.8992584  -6.8972416
  35.7092584  28.9072584  -6.5502416  36.4892584  28.8852584  -7.8472416
  27.1032584  16.8012584  -9.3142416  27.1032584  17.6852584  -9.6812416
  27.8072584  16.3492584  -9.7772416  29.5362584  26.2572584  -5.6522416
  29.6722584  26.9912584  -5.0542416  28.6892584  26.4342584  -6.0622416
   8.1722584  20.2182584 -12.9142416   7.9992584  20.0032584 -13.8312416
   8.0312584  19.3962584 -12.4442416  25.7382584  14.6692584 -10.4342416
  25.8802584  14.7392584 -11.3782416  26.0522584  15.5012584 -10.0812416
  24.7762584  10.5512584  -7.6812416  24.7292584  10.3592584  -6.7442416
  24.6352584   9.7062584  -8.1062416  30.2812584  14.4792584 -17.0942416
  30.3112584  15.3972584 -16.8252416  29.7702584  14.4822584 -17.9032416
  26.6232584  37.4522584 -18.5112416  27.5802584  37.4442584 -18.5172416
  26.3832584  36.9322584 -17.7442416  30.2862584  13.0152584   7.2367584
  30.9862584  12.5872584   6.7447584  29.6492584  13.2752584   6.5717584
  36.5962584  29.7372584  -2.5772416  36.3122584  30.5492584  -2.9972416
  37.4852584  29.9222584  -2.2752416  37.1932584  11.7462584 -10.6452416
  36.4812584  11.1212584 -10.5082416  36.8172584  12.5942584 -10.4112416
  15.1162584   9.3632584 -12.3192416  15.5792584   9.8382584 -11.6292416
  14.8052584  10.0462584 -12.9132416  33.2562584  14.6362584 -16.5072416
  33.9692584  14.9102584 -17.0842416  32.6692584  14.1352584 -17.0732416
  32.6052584  29.2492584 -17.8482416  32.6932584  29.4342584 -18.7832416
  33.4172584  28.7992584 -17.6152416  35.5592584  13.9012584  -0.0792416
  35.9972584  14.4272584  -0.7482416  35.2532584  13.1242584  -0.5472416
  28.1352584  12.8182584  -1.6252416  27.7752584  12.3402584  -2.3722416
  28.7172584  13.4702584  -2.0162416  36.5982584  18.2112584 -18.1642416
  36.9762584  18.0512584 -19.0282416  36.0812584  17.4262584 -17.9792416
  36.3692584  18.8122584   3.1047584  35.4772584  19.0222584   2.8277584
  36.2872584  18.5962584   4.0337584  34.7092584  20.0832584  -0.5532416
  34.7782584  19.1302584  -0.6132416  34.7982584  20.2722584   0.3807584
  35.3122584  21.5102584   4.6037584  35.9552584  21.1102584   5.1907584
  34.6462584  21.8712584   5.1887584  31.3062584  10.1692584   8.7347584
  31.9742584   9.8642584   8.1207584  31.5992584  11.0432584   8.9927584
  28.9572584  21.7952584 -16.9962416  28.9672584  22.1412584 -17.8882416
  28.1492584  21.2842584 -16.9462416  35.2242584  34.2042584 -19.1792416
  34.8452584  34.8182584 -19.8092416  35.9842584  34.6652584 -18.8242416
  33.7372584  14.0132584   6.5587584  33.0142584  13.4002584   6.4257584
  34.5162584  13.5282584   6.2857584  35.9532584  36.6182584 -16.3322416
  36.0692584  35.7192584 -16.0242416  36.6712584  36.7562584 -16.9492416
  29.6262584  32.9052584 -18.5612416  28.8502584  32.8332584 -18.0052416
  29.6992584  32.0492584 -18.9832416  34.2022584  16.1882584   1.5297584
  34.3572584  16.0012584   2.4557584  33.3682584  15.7592584   1.3357584
  26.7502584  27.6932584 -14.5882416  27.0212584  26.9352584 -15.1052416
  26.7652584  28.4232584 -15.2072416  34.1332584  19.0052584 -13.8322416
  34.4902584  19.8702584 -13.6342416  34.7362584  18.6392584 -14.4802416
  29.3802584  15.7832584   3.8537584  29.8262584  15.6642584   3.0157584
  29.1782584  14.8942584   4.1467584  30.2482584  35.2562584  -3.4242416
  29.3112584  35.2542584  -3.2302416  30.3712584  34.5162584  -4.0192416
  33.2762584  23.4102584   3.5317584  34.0232584  23.0032584   3.0927584
  33.3612584  23.1432584   4.4467584   8.9072584  13.1822584 -15.1532416
   8.5862584  12.7652584 -15.9532416   8.2792584  12.9232584 -14.4792416
  33.9052584  37.3282584 -18.1562416  34.7252584  36.9772584 -17.8092416
  33.5252584  37.8172584 -17.4262416  31.4492584  31.9772584  -1.0122416
  31.4692584  31.1912584  -0.4652416  32.3422584  32.0582584  -1.3482416
  34.6022584  36.4782584   8.9777584  34.0592584  37.0092584   9.5617584
  35.2622584  37.0872584   8.6457584  31.3692584  26.9432584 -17.6142416
  31.7272584  27.8082584 -17.8152416  32.0212584  26.5412584 -17.0392416
  32.4382584  23.5702584  -0.1412416  31.8742584  23.7742584   0.6057584
  32.2212584  24.2352584  -0.7942416  35.0822584  11.3732584 -18.5912416
  34.3322584  10.8002584 -18.4302416  34.7642584  12.2502584 -18.3802416
  36.4112584  20.1442584   6.9007584  36.5792584  19.5882584   7.6617584
  36.7692584  20.9982584   7.1437584  27.2612584  15.0362584   1.2967584
  27.6042584  14.1742584   1.0617584  28.0402584  15.5712584   1.4487584
  36.6072584  11.6002584  -3.3082416  36.4302584  10.8192584  -2.7832416
  36.1002584  12.2932584  -2.8842416  37.0432584  11.0282584   9.3277584
  36.5052584  11.3582584  10.0467584  36.9132584  11.6602584   8.6207584
  31.1942584  13.1412584 -14.3092416  31.0782584  12.9572584 -15.2412416
  31.4412584  12.2992584 -13.9272416  35.8912584  13.4152584   4.5927584
  36.4222584  14.0992584   5.0017584  36.4642584  12.6492584   4.5677584
  27.1962584  17.6382584   4.0287584  27.9942584  17.1102584   4.0757584
  26.4972584  17.0392584   4.2927584  30.7992584  21.1552584  -5.1872416
  30.5002584  21.0622584  -6.0912416  31.0592584  22.0732584  -5.1132416
  30.2902584  15.5282584   1.3517584  30.7652584  16.2242584   0.8977584
  30.7762584  14.7302584   1.1417584  28.4762584  12.6472584  -9.1432416
  29.3642584  12.8652584  -8.8602416  28.1502584  13.4512584  -9.5492416
  12.4712584  19.9902584 -11.8322416  12.0382584  19.3572584 -11.2582416
  12.7682584  20.6832584 -11.2432416  13.2452584  14.4732584  -6.3902416
  13.9552584  14.3602584  -7.0222416  13.1732584  15.4202584  -6.2762416
  34.1622584  34.5572584   2.7947584  35.0842584  34.6482584   3.0387584
  33.9992584  35.2862584   2.1967584  29.2002584  22.3812584  -3.2622416
  29.8412584  21.8132584  -3.6902416  29.6832584  22.7852584  -2.5412416
  31.3072584  12.1502584   1.7427584  31.7812584  12.9102584   1.4037584
  31.7352584  11.9532584   2.5757584  26.5462584  17.5292584   0.5847584
  26.1632584  18.3322584   0.9377584  26.3052584  16.8502584   1.2157584
  24.4092584  10.6762584  -5.1172416  24.6502584  10.1182584  -4.3772416
  24.1892584  11.5192584  -4.7202416  34.6672584  16.7302584 -12.0032416
  34.2722584  17.4902584 -12.4312416  34.6462584  16.0432584 -12.6692416
  11.8322584  16.6402584 -19.0192416  11.7432584  17.5762584 -18.8402416
  12.7732584  16.4742584 -18.9642416   9.6272584  37.8822584   1.9417584
   8.9602584  37.1972584   1.9237584   9.3372584  38.5172584   1.2867584
  34.3282584  20.8162584   2.0517584  33.5472584  20.3292584   2.3147584
  34.8982584  20.7902584   2.8197584  10.9792584  11.5732584 -13.8392416
  11.9332584  11.6502584 -13.8062416  10.6962584  12.3182584 -14.3692416
  29.5032584  18.7902584   2.3837584  28.9142584  19.5402584   2.2937584
  28.9562584  18.1002584   2.7607584  35.8062584  28.9872584   1.0007584
  36.3962584  29.2972584   1.6867584  35.7002584  29.7382584   0.4167584
  25.7092584  34.1352584 -18.6632416  25.8062584  35.0372584 -18.3572416
  26.3902584  34.0342584 -19.3292416  31.5132584  23.7522584  -5.9472416
  30.9312584  24.4812584  -6.1602416  32.0752584  24.0902584  -5.2492416
  29.7402584  24.0112584 -15.0922416  29.0822584  24.5222584 -15.5642416
  29.6832584  23.1352584 -15.4732416  26.7472584   8.4932584  -2.1432416
  27.0452584   8.7832584  -3.0052416  25.8732584   8.8712584  -2.0512416
  31.7712584  34.6182584   0.3877584  32.5052584  34.1682584  -0.0312416
  30.9952584  34.2772584  -0.0582416  29.1642584  38.1652584 -15.0902416
  28.6852584  38.9872584 -14.9942416  29.4862584  37.9702584 -14.2102416
  26.9712584  32.4322584  -5.8202416  27.4712584  32.5752584  -6.6242416
  27.5732584  31.9612584  -5.2442416  23.4302584  11.0272584 -12.3442416
  23.6912584  10.1512584 -12.6272416  24.2502584  11.4542584 -12.0982416
  25.0482584  12.0832584 -10.5572416  25.2152584  13.0132584 -10.4012416
  24.8882584  11.7182584  -9.6872416  27.5222584  32.5422584 -16.5562416
  26.7982584  33.0312584 -16.9452416  27.4432584  32.7042584 -15.6162416
  28.8922584   8.4462584   0.0257584  29.5042584   8.2322584  -0.6792416
  28.1492584   8.8552584  -0.4182416  34.3422584  29.8492584 -11.2542416
  34.2102584  30.4332584 -10.5072416  33.5592584  29.2992584 -11.2712416
  28.3072584  10.5452584 -14.6412416  28.3042584  11.0942584 -13.8562416
  28.7542584  11.0742584 -15.3022416  29.2012584  18.5742584  -3.1602416
  29.1762584  18.7532584  -4.1012416  30.0812584  18.2292584  -3.0052416
  23.8022584  26.5252584  -6.0252416  23.9222584  25.9352584  -6.7692416
  24.6402584  26.9782584  -5.9412416  35.0572584  25.8662584 -10.0192416
  34.9402584  25.7322584  -9.0792416  35.5012584  26.7122584 -10.0872416
   8.2262584  34.0382584  -5.4092416   7.4022584  33.6742584  -5.0872416
   8.4242584  33.5262584  -6.1932416   9.1272584  38.1222584  -0.7382416
   9.4402584  37.2182584  -0.7252416   8.7042584  38.2172584  -1.5922416
   9.2732584  36.7682584 -15.8722416   8.8412584  37.2092584 -16.6032416
   9.6602584  37.4782584 -15.3592416  24.6522584  28.0492584 -12.4472416
  23.7642584  27.7042584 -12.3532416  24.9142584  27.7982584 -13.3332416
  32.6952584  33.7892584   9.4057584  33.5432584  33.3502584   9.3297584
  32.2372584  33.5672584   8.5947584  33.8682584  25.9982584  -5.8212416
  33.4722584  26.2182584  -4.9772416  34.0052584  25.0512584  -5.7812416
  27.1252584  31.9812584 -13.9282416  26.6522584  31.1492584 -13.9112416
  28.0392584  31.7402584 -13.7772416  30.2372584  30.0602584  -5.8892416
  29.7622584  30.0442584  -6.7202416  31.1452584  29.8742584  -6.1282416
  28.7192584  35.4582584 -15.4462416  29.0262584  35.1372584 -16.2942416
  28.9942584  36.3752584 -15.4232416  29.7592584  31.6172584 -13.1312416
  29.7072584  30.8332584 -12.5842416  30.6772584  31.6642584 -13.3982416
  32.4222584  11.6812584  -6.9702416  32.0492584  11.0742584  -7.6092416
  33.2782584  11.9132584  -7.3302416  31.3052584  30.2602584 -15.6452416
  31.9502584  30.8832584 -15.3112416  31.6302584  30.0192584 -16.5122416
  32.5162584  24.9542584 -15.6502416  32.6232584  24.2982584 -16.3392416
  31.6822584  24.7322584 -15.2352416  32.8662584  29.3242584   3.8697584
  33.1312584  30.1272584   3.4217584  32.2212584  28.9252584   3.2867584
  35.2652584  23.4772584  -5.2552416  35.5212584  22.5882584  -5.4992416
  35.8992584  24.0402584  -5.7012416  28.6902584  26.1112584 -10.3892416
  27.8802584  26.3992584  -9.9682416  28.4002584  25.6042584 -11.1472416
  28.5022584  29.7322584  -8.4732416  27.5652584  29.8152584  -8.2962416
  28.5492584  29.3562584  -9.3522416  27.1342584  34.3972584   8.9997584
  26.2482584  34.7532584   8.9367584  27.5752584  34.7092584   8.2097584
  29.9612584  27.7462584  -2.0012416  29.4942584  28.4972584  -2.3692416
  30.6192584  28.1332584  -1.4232416  26.9062584  29.9742584 -11.7892416
  26.3112584  29.3062584 -12.1302416  27.7042584  29.4942584 -11.5702416
  30.8972584  26.1822584  -8.8672416  31.3462584  25.3682584  -9.0942416
  30.1462584  26.2142584  -9.4602416  34.6642584  34.2702584 -12.8732416
  34.9512584  33.3672584 -12.7432416  34.5892584  34.3642584 -13.8232416
  34.3472584  33.6572584  -0.5192416  34.4242584  33.0252584  -1.2332416
  35.1362584  34.1942584  -0.5872416  36.1912584  23.6842584  -1.9962416
  35.8612584  23.4782584  -1.1222416  35.7512584  23.0592584  -2.5722416
  32.7092584  10.5752584 -17.1062416  31.8902584  11.0682584 -17.1512416
  32.4722584   9.7532584 -16.6772416  35.0312584  24.9122584 -14.4192416
  34.3582584  24.8792584 -15.0992416  35.4202584  25.7832584 -14.5082416
  25.3552584  19.8822584  -1.2492416  25.3062584  20.1232584  -0.3242416
  26.2212584  20.1792584  -1.5282416  31.8212584  38.1472584 -16.1152416
  30.8742584  38.0342584 -16.0392416  32.1752584  37.7382584 -15.3252416
  31.3482584  36.9032584 -10.7092416  32.1802584  36.4302584 -10.6942416
  30.7172584  36.2902584 -10.3322416  34.8232584  36.7772584 -11.7942416
  34.7602584  35.8252584 -11.8752416  34.7482584  36.9422584 -10.8542416
  33.9112584  31.6712584  -2.2632416  34.2402584  31.9642584  -3.1132416
  33.6342584  30.7672584  -2.4112416  35.8362584  31.8512584 -17.2482416
  36.7402584  32.1562584 -17.1802416  35.4232584  32.4582584 -17.8622416
  25.2952584  37.7682584  -5.5312416  26.0182584  38.3912584  -5.4632416
  25.7142584  36.9372584  -5.7532416  36.9052584  35.4692584  -1.2282416
  36.7442584  35.9332584  -2.0502416  36.4572584  35.9932584  -0.5652416
  32.4962584  34.4442584  -7.6072416  32.2452584  34.0312584  -8.4332416
  31.8702584  35.1602584  -7.4972416  22.6542584  31.8962584 -16.3442416
  23.1372584  31.7142584 -17.1502416  22.5592584  31.0412584 -15.9242416
  20.7042584  36.3532584  -4.0172416  21.6402584  36.2842584  -3.8302416
  20.4572584  35.4842584  -4.3332416  32.3602584  33.5932584 -17.5692416
  31.4492584  33.3022584 -17.5532416  32.5812584  33.6392584 -18.4992416
  28.3472584  35.6002584 -12.8322416  28.6122584  35.3732584 -13.7232416
  28.7292584  36.4642584 -12.6802416  23.2402584  12.9982584  -3.6092416
  23.2742584  12.9442584  -2.6542416  22.6462584  13.7282584  -3.7862416
  10.0732584  35.8972584  -7.1132416   9.2172584  35.4722584  -7.1652416
  10.4612584  35.7642584  -7.9772416  34.5132584  27.3242584 -17.8382416
  35.0062584  27.6092584 -18.6082416  34.5402584  26.3682584 -17.8762416
   7.3642584  34.3062584 -15.7382416   7.7962584  33.7642584 -16.3992416
   8.0372584  34.9272584 -15.4602416  29.1002584  28.6992584 -11.0942416
  28.9852584  27.7552584 -10.9912416  29.6052584  28.7932584 -11.9012416
  28.0142584  34.2162584  -7.8342416  27.7972584  34.3792584  -8.7522416
  27.9892584  35.0802584  -7.4242416  34.5502584   9.6142584 -13.1132416
  34.8242584  10.0972584 -13.8932416  35.2072584   8.9252584 -13.0142416
  25.6862584  29.3272584  -8.0402416  25.4832584  28.6972584  -8.7312416
  25.0642584  30.0412584  -8.1752416  34.7862584  37.3572584  -8.9422416
  34.6452584  37.8052584  -8.1082416  35.6952584  37.0612584  -8.9062416
  17.0912584  36.7582584  -1.8122416  17.7412584  36.0572584  -1.8592416
  16.2542584  36.3212584  -1.9702416  36.6982584  18.0432584 -15.4412416
  36.4302584  17.8752584 -16.3442416  37.5322584  17.5832584 -15.3482416
  32.1332584  36.9862584  -6.4862416  32.8612584  36.5002584  -6.0992416
  32.5432584  37.7462584  -6.8982416  33.4542584  29.0102584  -2.8472416
  33.1532584  28.1702584  -3.1932416  34.3452584  28.8382584  -2.5422416
   8.1142584  38.3932584  -9.4322416   8.6122584  37.8322584 -10.0282416
   7.2712584  38.5172584  -9.8682416   7.3222584   8.7132584 -13.2362416
   7.3272584   8.6412584 -14.1912416   7.8672584   7.9852584 -12.9382416
  27.2992584  34.7482584 -10.4232416  27.5762584  34.8032584 -11.3372416
  27.0722584  35.6472584 -10.1862416  30.8312584  37.6182584   7.9937584
  31.0562584  37.0902584   8.7597584  30.9082584  38.5232584   8.2957584
  24.9962584   9.9322584 -17.3652416  25.0112584   9.7422584 -16.4272416
  25.1892584   9.0922584 -17.7832416  28.4782584  29.8752584 -16.1772416
  29.3842584  30.0362584 -15.9142416  28.1222584  30.7452584 -16.3542416
  32.0272584  26.5692584  -3.8502416  32.3112584  25.7092584  -3.5422416
  31.4562584  26.8962584  -3.1552416  33.1332584  31.5112584  -9.2062416
  32.2342584  31.3332584  -8.9312416  33.0712584  32.3132584  -9.7252416
   7.7442584  31.4672584 -10.9942416   7.3792584  31.8722584 -11.7802416
   7.0502584  31.5452584 -10.3392416  26.2872584  33.6902584  -1.7492416
  26.0382584  33.9552584  -0.8642416  25.7122584  32.9512584  -1.9492416
  31.8822584  34.9302584   4.6087584  32.6542584  34.8422584   4.0497584
  31.2142584  34.3922584   4.1827584  26.9822584  35.7472584   3.9127584
  27.7322584  35.5772584   3.3427584  26.7962584  36.6792584   3.7917584
  33.2722584  37.0902584 -14.0532416  33.7112584  37.3802584 -13.2532416
  33.7242584  36.2812584 -14.2942416  29.1922584  35.9812584 -18.3622416
  30.1172584  36.0462584 -18.5992416  28.9212584  35.1232584 -18.6892416
  24.8062584  29.1792584 -16.1562416  24.6082584  28.3282584 -16.5482416
  24.9662584  29.7552584 -16.9032416  35.8962584  31.6702584   0.9287584
  36.7502584  32.0712584   0.7697584  35.2752584  32.2402584   0.4737584
  36.1192584  27.7892584   9.7327584  35.6872584  27.4642584   8.9427584
  36.9382584  27.2972584   9.7787584  36.5262584  28.5412584  -9.7692416
  37.3322584  28.9422584 -10.0952416  35.9062584  28.6292584 -10.4932416
  36.9322584   9.6842584   3.3467584  37.1652584   9.0322584   2.6857584
  35.9902584   9.5692584   3.4757584  36.2932584  34.8662584   6.6057584
  35.7172584  34.9202584   7.3677584  35.7852584  34.3812584   5.9547584
  34.6222584  33.0632584   5.1837584  33.8072584  32.9752584   4.6907584
  34.5612584  32.3972584   5.8687584  33.6452584  26.6772584   4.5997584
  33.7912584  27.5082584   4.1487584  32.7102584  26.5032584   4.4887584
  35.2602584  23.4432584   0.8107584  35.2672584  24.3782584   0.6027584
  34.3822584  23.2802584   1.1537584  37.0992584  36.4672584   2.4857584
  36.5692584  36.8162584   3.2027584  37.2352584  35.5472584   2.7127584
  34.7492584  31.7352584   9.0747584  35.3882584  32.2352584   9.5817584
  35.2522584  31.3712584   8.3467584  33.3102584   9.1112584   7.1587584
  33.0802584   8.5222584   6.4407584  34.1032584   8.7312584   7.5367584
  10.9892584  11.0742584 -17.8442416  10.3522584  11.5322584 -18.3932416
  10.4622584  10.4882584 -17.3022416  36.2712584  30.4442584   7.1137584
  36.9862584  29.9402584   7.5027584  36.6622584  30.8622584   6.3467584
  33.6512584  30.5372584   6.4447584  34.4932584  30.1202584   6.6277584
  33.3292584  30.0922584   5.6597584  31.4632584  37.6492584   5.2827584
  31.4802584  37.3832584   6.2017584  31.6632584  36.8492584   4.7977584
  27.9312584  12.3362584   0.8667584  28.0562584  12.3862584  -0.0802416
  28.8022584  12.4872584   1.2327584  36.2132584  37.2472584   4.9527584
  37.0552584  37.5982584   5.2447584  36.0392584  36.5162584   5.5457584
  33.3512584  34.8382584 -15.4712416  32.8602584  35.6472584 -15.3282416
  33.0032584  34.4892584 -16.2912416  24.2332584  36.8462584   5.4377584
  24.7742584  36.9402584   6.2217584  24.3682584  35.9402584   5.1607584
  30.8132584  33.3872584   2.6957584  30.0452584  33.0332584   2.2467584
  31.3432584  33.7722584   1.9977584  28.4462584  31.9512584   1.4077584
  27.7112584  31.5162584   0.9767584  28.0492584  32.4272584   2.1367584
  10.3662584  38.1322584   4.4847584  10.0882584  37.9342584   3.5907584
  10.8022584  38.9822584   4.4187584  31.6152584  17.8502584   0.7357584
  32.4462584  18.0652584   1.1597584  30.9472584  18.1912584   1.3307584
   9.8972584  29.5952584 -18.8452416   9.0562584  30.0532584 -18.8362416
  10.0832584  29.4552584 -19.7742416  25.7672584  35.0072584   0.5987584
  26.5902584  35.4402584   0.8247584  25.1282584  35.3722584   1.2097584
  31.1512584  10.1012584   3.9817584  30.2772584  10.3802584   4.2567584
  31.1942584   9.1752584   4.2207584  30.7862584  28.8802584 -13.2772416
  31.6482584  28.4812584 -13.1582416  30.8172584  29.2642584 -14.1532416
  28.2122584  30.3902584  -2.0342416  27.8342584  30.4952584  -1.1602416
  28.6502584  31.2232584  -2.2082416  36.5512584  14.9002584   2.3617584
  36.1622584  14.6052584   1.5387584  36.2192584  14.2872584   3.0177584
  31.7592584  36.3472584  10.2077584  32.1212584  35.5022584   9.9417584
  32.3752584  36.6772584  10.8617584  29.5092584   9.0372584 -19.3602416
  30.0422584   8.7602584 -18.6152416  30.1452584   9.2512584 -20.0432416
  23.2212584  37.6942584  -0.7902416  22.2842584  37.6072584  -0.9672416
  23.3292584  37.3592584   0.0997584   8.0622584  14.6512584 -18.4752416
   8.3912584  15.1052584 -19.2512416   8.8062584  14.6322584 -17.8742416
  20.3072584  37.6812584  -1.2762416  20.6142584  37.0922584  -1.9652416
  19.5382584  38.1092584  -1.6522416  28.4812584  13.6972584  40.5507584
  27.7342584  13.3882584  41.0637584  28.1132584  14.3602584  39.9667584
  28.3182584   9.5832584  32.3547584  28.1582584   8.7342584  31.9427584
  28.8282584  10.0722584  31.7087584  36.5012584  27.3942584  25.8217584
  36.8412584  27.9672584  26.5097584  37.0912584  27.5322584  25.0807584
   9.7262584  15.5972584  39.4667584  10.4672584  16.0092584  39.9127584
  10.0562584  15.3942584  38.5917584  20.1242584  33.9862584  24.8177584
  21.0572584  33.7942584  24.7287584  19.7172584  33.5552584  24.0667584
  35.2302584  13.9972584  16.1687584  34.2902584  14.1172584  16.0327584
  35.4092584  13.1132584  15.8497584  25.6252584  13.2912584  35.6657584
  25.3082584  12.9482584  36.5007584  25.5652584  12.5502584  35.0627584
  35.9932584  18.3732584  26.3927584  35.0542584  18.4342584  26.2187584
  36.0502584  18.0302584  27.2847584  16.8482584  32.4372584  40.8057584
  16.2412584  33.0282584  40.3607584  17.7162584  32.7812584  40.5947584
  11.6252584  37.2202584  36.8537584  12.0912584  36.5432584  36.3627584
  10.9772584  37.5612584  36.2367584  24.1712584  22.8152584  39.0047584
  25.0132584  22.4172584  39.2257584  24.3342584  23.2802584  38.1837584
  19.4702584  17.5102584  37.5797584  19.0692584  18.2612584  37.1437584
  20.1792584  17.8862584  38.1017584  14.4012584  16.6372584  40.4717584
  14.5532584  17.1762584  41.2477584  15.2582584  16.5752584  40.0507584
  17.6032584  34.3182584  37.4147584  17.5952584  34.7172584  36.5447584
  16.8092584  34.6472584  37.8367584  22.7642584  12.9362584  33.8277584
  23.3162584  13.5772584  33.3797584  22.4602584  12.3532584  33.1327584
  30.8722584  27.6852584  36.2427584  30.1382584  27.3802584  36.7747584
  31.2682584  28.3872584  36.7597584  13.3912584  37.2202584  18.0117584
  12.8162584  37.7562584  18.5567584  14.1322584  37.7912584  17.8087584
  13.0712584  19.5682584  38.9727584  13.8782584  19.6432584  39.4807584
  12.3892584  19.4102584  39.6257584  25.4442584  19.2472584  38.2167584
  25.1332584  19.3072584  37.3137584  26.3922584  19.3612584  38.1527584
  23.9922584  17.2712584  32.5327584  23.3192584  16.6972584  32.1667584
  24.5772584  16.6822584  33.0087584  16.4152584  38.3922584  30.1737584
  16.3142584  37.7532584  29.4687584  16.9662584  39.0792584  29.7977584
  13.0912584  34.6072584  26.4037584  12.1702584  34.8352584  26.2787584
  13.4492584  34.5612584  25.5177584  10.7402584  37.6292584  25.0077584
  10.6462584  37.1652584  24.1757584  11.2712584  38.3972584  24.7957584
  21.1852584  18.4532584  39.7157584  21.9122584  17.8932584  39.9877584
  21.5472584  18.9882584  39.0087584  22.2002584  15.5512584  38.6677584
  22.4252584  15.4762584  39.5947584  21.3432584  15.1312584  38.5937584
  36.2642584  10.8022584  24.1997584  36.3832584  11.1572584  25.0807584
  37.1532584  10.6612584  23.8747584   8.3932584  26.2462584  40.0687584
   9.0982584  26.5322584  40.6487584   8.8402584  25.8042584  39.3477584
  22.9042584  20.4972584  38.6447584  23.7412584  20.0372584  38.7177584
  23.1062584  21.4012584  38.8867584  11.0492584  36.7012584  16.7297584
  10.7262584  37.5562584  16.4447584  11.9332584  36.8732584  17.0517584
   9.3162584  30.5652584  28.4797584  10.0352584  30.2432584  27.9377584
   9.5002584  31.4972584  28.5947584  32.9692584  24.0112584  26.2147584
  33.7882584  23.8862584  25.7357584  33.0242584  23.3982584  26.9477584
  21.9342584  26.8082584  39.4617584  22.2172584  27.6832584  39.1927584
  22.4542584  26.6172584  40.2417584  25.9992584  27.0792584  40.1617584
  26.3672584  26.1972584  40.1107584  26.6912584  27.6482584  39.8247584
  35.9952584  15.1862584  25.7367584  35.7882584  14.7742584  24.8987584
  35.1712584  15.5852584  26.0177584  23.9952584  29.0012584  26.5887584
  24.7342584  28.4072584  26.4577584  23.9132584  29.4702584  25.7577584
  25.0152584  19.1052584  35.3337584  24.2442584  18.6422584  35.0057584
  25.7522584  18.6892584  34.8877584  34.3462584  21.5212584  27.1497584
  34.6942584  20.9352584  27.8217584  33.6642584  21.0092584  26.7147584
  15.6992584  37.9842584  15.3397584  16.4532584  38.2502584  14.8127584
  15.8552584  38.3802584  16.1967584  11.2312584  35.6902584  20.5727584
  12.1662584  35.4822584  20.5747584  11.1932584  36.6212584  20.3547584
  18.8382584  16.5612584  34.2267584  19.1132584  15.9282584  34.8907584
  19.1242584  17.4072584  34.5707584  28.6932584  29.3252584  32.2827584
  28.7232584  30.2792584  32.2087584  28.4102584  29.0272584  31.4187584
  23.3922584  21.2182584  34.9467584  24.1452584  20.8152584  35.3787584
  22.7012584  20.5572584  35.0027584  15.0732584  34.4622584  34.3307584
  15.7222584  34.6642584  33.6567584  14.2662584  34.2952584  33.8437584
  36.0242584  15.7062584  12.9077584  36.0632584  15.4122584  13.8177584
  36.7332584  15.2312584  12.4727584  20.0252584  14.5302584  36.4757584
  19.4152584  15.2342584  36.6937584  19.4832584  13.8662584  36.0497584
  29.2672584  17.8212584  40.1037584  30.1532584  17.4612584  40.0507584
  28.6932584  17.0662584  39.9787584  23.0892584  27.8412584  35.4857584
  22.7812584  27.2722584  36.1907584  24.0432584  27.8242584  35.5627584
  21.8732584  37.6732584  37.3207584  22.5662584  38.2062584  36.9297584
  21.5312584  38.2112584  38.0347584  19.2732584  10.7222584  36.2747584
  19.0882584  10.7762584  37.2117584  18.8682584  11.5062584  35.9037584
  10.6662584  18.0372584  37.7667584  10.9022584  17.1512584  37.4927584
  11.2912584  18.2492584  38.4597584  27.3092584  12.2712584  25.6467584
  27.8012584  12.9352584  25.1637584  26.4572584  12.2402584  25.2117584
  16.3432584  38.1232584  33.1237584  17.1282584  38.6682584  33.1737584
  16.3612584  37.7562584  32.2397584  12.8892584  14.9952584  38.5847584
  13.4662584  15.2182584  37.8547584  13.4232584  15.1412584  39.3657584
  22.7502584  33.9842584  36.9057584  22.0152584  33.4312584  36.6417584
  23.2832584  34.0682584  36.1147584  14.3482584  15.5742584  36.1607584
  13.8672584  15.4602584  35.3417584  14.4672584  16.5202584  36.2397584
  21.5042584  19.2542584  35.6197584  20.6662584  19.1202584  35.1777584
  21.8032584  18.3722584  35.8397584  31.9612584  14.5042584  27.7657584
  31.0222584  14.4642584  27.5837584  32.3752584  14.1752584  26.9677584
   8.9682584   9.0602584  39.5557584   9.7682584   9.5062584  39.8337584
   8.3012584   9.7472584  39.5477584  10.2322584  36.3902584  39.1897584
  10.4592584  36.1962584  38.2797584  10.0982584  37.3372584  39.2067584
  16.0162584  27.7132584  39.4927584  16.2532584  27.1992584  40.2647584
  15.4212584  28.3852584  39.8247584  18.0052584  12.9442584  35.3257584
  17.1062584  13.0072584  35.6487584  17.9152584  12.8982584  34.3737584
  15.3522584  19.8422584  40.1367584  16.3002584  19.9722584  40.1447584
  15.1832584  19.2562584  40.8747584  13.1522584  10.9202584  40.2717584
  12.5962584  10.8482584  41.0467584  12.6682584  10.4622584  39.5847584
  36.1272584   8.3392584  37.9877584  36.4972584   9.0832584  38.4627584
  36.6522584   8.2782584  37.1897584  26.0202584  11.9652584  32.9697584
  26.0522584  11.0512584  33.2537584  26.5302584  11.9822584  32.1597584
   8.0712584  37.5672584  11.8367584   8.3712584  38.0792584  11.0857584
   8.2312584  36.6572584  11.5867584  22.4442584  16.7132584  35.9527584
  21.7302584  16.0802584  36.0237584  22.9152584  16.6382584  36.7827584
   8.8102584  18.0952584  35.8257584   9.5192584  17.9712584  36.4567584
   9.2462584  18.4022584  35.0317584  31.2202584  27.8142584  32.0297584
  31.4782584  26.9302584  32.2917584  30.3652584  27.9462584  32.4407584
  12.3082584  12.4402584  37.4927584  11.3802584  12.5752584  37.3017584
  12.5422584  13.1642584  38.0727584  28.7352584  10.7132584  34.9257584
  28.3882584  10.5502584  34.0487584  28.6362584   9.8782584  35.3827584
  29.4862584  26.2452584  34.4277584  29.3762584  25.4602584  34.9647584
  29.9092584  26.8762584  35.0087584  16.8362584  36.2612584  35.5917584
  16.6502584  36.0112584  34.6867584  17.5832584  36.8562584  35.5277584
  10.7502584  15.6252584  36.6637584  11.5502584  15.1062584  36.7477584
  10.6042584  15.6892584  35.7197584   8.1842584  22.6142584  40.2587584
   8.7322584  23.3782584  40.0767584   8.1422584  22.5712584  41.2137584
  18.5392584  21.6282584  39.5037584  17.8992584  22.1752584  39.0487584
  19.0972584  21.2812584  38.8077584  35.6262584   9.7512584  28.3917584
  35.5692584   8.8272584  28.6357584  35.5722584  10.2222584  29.2237584
  24.1562584  25.0482584  33.2497584  24.0002584  25.9712584  33.4507584
  25.0562584  25.0222584  32.9257584   8.0682584  11.8522584  34.5797584
   7.7492584  10.9752584  34.3687584   8.8312584  11.9732584  34.0137584
  23.1042584  36.0792584  31.5497584  22.6542584  35.3812584  31.0737584
  22.4912584  36.3332584  32.2387584  22.7512584  12.6232584  36.7347584
  22.0562584  13.2812584  36.7457584  22.9842584  12.5352584  35.8107584
  24.8302584  38.5082584  33.2707584  24.6212584  37.8082584  32.6527584
  24.5012584  38.1912584  34.1117584  16.5712584  16.5182584  38.8767584
  15.9952584  16.6112584  38.1177584  17.3802584  16.9602584  38.6197584
  25.6222584  37.8302584  38.9487584  25.1362584  37.0122584  38.8457584
  25.9232584  37.8182584  39.8577584  16.9152584  36.5042584  19.2357584
  16.6152584  36.4962584  18.3277584  16.3402584  37.1322584  19.6727584
  35.2462584  34.3242584  22.8247584  35.4422584  35.1652584  23.2377584
  34.2922584  34.3122584  22.7447584  12.1932584  37.9542584  28.8637584
  12.3272584  38.1032584  29.7997584  11.8082584  38.7702584  28.5437584
  10.5202584  33.0392584  29.9877584  11.3992584  32.6632584  29.9427584
  10.6102584  33.9072584  29.5947584  24.8012584  29.9062584  32.0697584
  24.3062584  30.6332584  32.4477584  24.3982584  29.1222584  32.4427584
  20.0362584  33.4072584  32.5227584  19.6812584  32.6882584  31.9997584
  20.5202584  33.9432584  31.8947584  11.8712584  30.9242584  27.2047584
  12.4702584  31.6702584  27.2357584  12.4042584  30.1782584  27.4807584
  37.2022584  30.3762584  40.4757584  36.5072584  30.4542584  41.1297584
  37.1372584  29.4752584  40.1617584  31.5122584  33.1502584  24.7257584
  32.0902584  32.4172584  24.5177584  31.7422584  33.8262584  24.0877584
  13.0452584  35.8222584  40.5587584  12.4492584  35.9852584  39.8267584
  12.5552584  35.2432584  41.1427584  22.6382584  33.5352584  24.6337584
  23.4392584  33.6452584  24.1217584  22.2742584  32.7022584  24.3337584
  18.3572584  37.7972584  24.7187584  19.1532584  37.4562584  25.1267584
  18.0222584  38.4402584  25.3447584  35.3702584  10.8562584  30.7707584
  34.5682584  10.6432584  31.2487584  35.6222584  11.7202584  31.0957584
  26.4142584  37.3362584  19.9267584  25.8752584  37.7242584  20.6157584
  25.7912584  37.0962584  19.2407584  22.6302584  31.6882584  30.6287584
  23.1992584  31.5462584  29.8727584  22.1942584  30.8472584  30.7627584
  19.6772584  34.4542584  39.8537584  19.3522584  34.4102584  40.7527584
  18.8942584  34.5962584  39.3217584  18.4632584  34.5292584  27.1457584
  19.0872584  34.4592584  26.4237584  18.4632584  33.6602584  27.5487584
  36.0482584  32.3472584  21.0817584  35.3262584  31.7242584  20.9917584
  35.7392584  32.9812584  21.7287584  31.6692584  29.2622584  29.6437584
  32.5132584  29.5262584  29.2767584  31.8952584  28.6702584  30.3617584
  37.0362584  35.3302584  19.5687584  36.4302584  34.6322584  19.3157584
  37.6252584  34.9182584  20.2007584  15.1592584  31.6352584  35.2197584
  15.8242584  31.1352584  34.7467584  15.1482584  32.4892584  34.7857584
  36.0122584  37.3972584  30.1677584  36.5432584  37.2322584  30.9467584
  35.1102584  37.2732584  30.4617584  13.9622584  36.9072584  24.8527584
  14.5532584  37.6402584  25.0267584  13.1572584  37.1322584  25.3187584
  16.9632584  31.0352584  37.2997584  16.4762584  31.0732584  36.4757584
  16.9262584  31.9282584  37.6417584   8.6472584  38.1452584  26.5127584
   8.6262584  39.0962584  26.6237584   9.4782584  37.9742584  26.0697584
  13.3262584  31.9402584  30.7197584  13.5202584  31.7232584  29.8077584
  14.1532584  32.2762584  31.0677584  17.4042584  36.8682584  22.5817584
  18.2012584  36.7302584  22.0697584  17.7162584  37.0382584  23.4707584
  24.5812584  30.7982584  38.0457584  24.8322584  31.3072584  38.8167584
  25.3142584  30.9052584  37.4387584   8.8742584  36.8842584  18.2017584
   9.5432584  36.3752584  17.7457584   8.0892584  36.3382584  18.1637584
  26.5032584  35.1112584  24.6517584  26.8042584  35.3092584  25.5387584
  26.5552584  34.1572584  24.5877584  36.8022584  36.3022584  25.9427584
  37.2982584  35.5682584  25.5787584  37.4582584  36.9812584  26.1007584
  11.1382584  35.3012584  28.7657584  10.9562584  35.2542584  27.8277584
  11.6462584  36.1062584  28.8707584  14.3882584  30.9092584  38.7327584
  13.8012584  30.7992584  37.9847584  15.2672584  30.8342584  38.3597584
  22.5332584  29.2872584  38.7537584  21.9012584  29.9632584  38.5117584
  23.3732584  29.6182584  38.4337584  27.0972584   8.7252584  36.9347584
  26.5002584   8.4872584  37.6437584  27.4892584   9.5512584  37.2177584
  33.5692584  31.5822584  32.7667584  33.1002584  32.2752584  32.3027584
  34.4352584  31.5642584  32.3597584  15.8892584  13.3702584  36.8387584
  15.7592584  13.2692584  37.7817584  15.1602584  13.9212584  36.5527584
  12.2482584   9.4342584  38.2367584  12.4302584  10.2432584  37.7597584
  12.1172584   8.7772584  37.5527584  19.8092584  30.4832584  35.1467584
  19.9062584  30.2042584  36.0577584  20.3332584  29.8572584  34.6467584
  16.4692584  34.8972584  25.3227584  16.9242584  34.6912584  26.1387584
  16.3022584  35.8392584  25.3717584  30.5652584  37.7882584  27.5907584
  30.5012584  36.8332584  27.6057584  30.1882584  38.0402584  26.7487584
  23.4492584  31.8832584  33.0777584  23.0982584  31.9872584  32.1937584
  22.6892584  31.9902584  33.6517584  23.6042584  36.3652584  26.6597584
  23.9862584  36.8872584  27.3637584  24.1752584  36.5222584  25.9067584
  21.3352584  32.5932584  34.7037584  20.8242584  31.8122584  34.9137584
  20.7752584  33.0942584  34.1107584  20.6762584  27.9142584  34.1437584
  20.7952584  27.1052584  33.6457584  21.3892584  27.9112584  34.7817584
  11.1132584  32.1672584  38.5237584  10.9682584  31.2312584  38.3837584
  11.8002584  32.2072584  39.1887584  30.5342584  33.8022584  36.8887584
  31.0672584  34.2192584  36.2107584  29.8372584  34.4332584  37.0667584
  28.2932584  35.6312584  36.8977584  27.9452584  35.7732584  36.0177584
  28.5432584  36.5042584  37.2007584  21.8912584  34.2182584  30.2627584
  22.0212584  34.2282584  29.3137584  21.8302584  33.2902584  30.4867584
  18.8512584  37.9222584  35.7427584  18.7132584  38.7102584  36.2687584
  19.7872584  37.7392584  35.8257584  12.8202584  33.9662584  32.6867584
  13.3282584  34.3612584  31.9777584  12.4602584  33.1652584  32.3067584
  15.6532584  10.9882584  35.5487584  15.2852584  10.2462584  36.0277584
  15.6622584  11.7032584  36.1847584  10.7632584  29.4072584  38.5507584
   9.8892584  29.2942584  38.1777584  11.3572584  29.0952584  37.8697584
  31.7142584  25.4352584  33.0087584  32.3142584  24.7412584  33.2817584
  30.8862584  25.2212584  33.4377584  18.8912584  28.5132584  40.3927584
  18.0032584  28.3332584  40.0837584  19.2022584  27.6752584  40.7327584
  21.8872584  36.0352584  40.0737584  20.9892584  35.7952584  40.3007584
  21.7962584  36.6272584  39.3267584  21.7952584  37.2382584  34.1297584
  22.3422584  36.7972584  34.7807584  21.8422584  38.1642584  34.3647584
  15.2052584  34.0472584  39.7287584  14.5402584  34.4322584  40.2997584
  14.7622584  33.9302584  38.8887584  24.4292584  34.2742584  34.8497584
  25.1852584  34.1912584  34.2687584  23.8372584  33.5742584  34.5747584
  23.5762584  33.4622584  27.1427584  23.1742584  33.4132584  26.2757584
  23.8872584  34.3642584  27.2127584  33.9642584  12.0992584  33.3467584
  33.9662584  11.2712584  33.8267584  34.5482584  12.6682584  33.8467584
  18.5312584  37.3862584  38.5177584  17.5812584  37.3802584  38.3997584
  18.8842584  37.2312584  37.6417584   8.4692584  29.3552584  32.9457584
   8.7192584  28.6872584  32.3077584   9.1552584  30.0192584  32.8797584
  14.6062584  34.6362584  30.6767584  14.6182584  35.0832584  29.8307584
  15.4352584  34.8812584  31.0887584  18.0382584  10.6252584  38.7487584
  17.1582584  10.4262584  38.4287584  17.9142584  10.8442584  39.6717584
  19.3542584  29.5282584  37.7917584  18.5472584  30.0232584  37.6477584
  19.6322584  29.7742584  38.6737584  28.8392584  34.2922584  29.8677584
  29.0772584  33.9232584  29.0177584  28.3312584  33.6012584  30.2947584
   9.1032584  34.4772584  37.0577584   8.2232584  34.8152584  36.8957584
   9.0032584  33.9012584  37.8157584  33.6942584  31.8442584  14.5097584
  34.4612584  31.7302584  13.9487584  33.3462584  32.7022584  14.2687584
  19.3002584  36.7712584  32.7717584  20.0562584  36.7822584  33.3587584
  19.1072584  37.6952584  32.6117584  14.0982584  38.0932584  35.0217584
  14.5982584  37.5592584  35.6387584  14.7302584  38.3342584  34.3447584
  26.5342584  27.8332584  30.9567584  26.2222584  27.5462584  30.0987584
  25.7372584  28.0222584  31.4517584  21.7282584  11.7912584  39.3567584
  21.3652584  10.9222584  39.1807584  22.2472584  11.9952584  38.5787584
  24.2952584  24.1592584  36.5267584  24.9682584  24.8392584  36.4847584
  23.4872584  24.6332584  36.7217584  15.4462584   9.7012584  38.7627584
  14.7892584   9.8422584  39.4447584  15.3822584   8.7672584  38.5587584
  22.3252584  25.6952584  37.0157584  22.4342584  26.1262584  37.8637584
  21.7382584  24.9612584  37.1937584  14.4722584  34.8452584  36.9147584
  13.5472584  34.7192584  36.7017584  14.9132584  34.8602584  36.0657584
  14.3332584  35.9812584  28.3037584  14.0222584  35.7102584  27.4397584
  13.7342584  36.6802584  28.5657584  32.2872584  11.4472584  36.0237584
  31.9532584  11.1282584  35.1857584  32.8302584  10.7312584  36.3537584
  15.2262584  37.6022584  21.1567584  15.8052584  37.2802584  21.8467584
  14.7042584  38.2832584  21.5807584  15.6162584  37.0212584  38.4167584
  15.2902584  36.4372584  37.7317584  15.2142584  36.6942584  39.2217584
  17.9672584  14.6452584  40.5857584  18.3142584  15.3232584  41.1647584
  17.3472584  15.1062584  40.0197584  37.1322584  21.3672584  30.7767584
  36.4342584  21.9832584  30.5527584  36.7422584  20.5042584  30.6377584
  30.0182584  30.2802584  40.5217584  30.3032584  29.5952584  41.1277584
  30.5912584  30.1802584  39.7617584  35.4142584  31.7572584  25.4877584
  34.7572584  31.8872584  24.8047584  36.2292584  31.5992584  25.0097584
  26.7272584  25.6742584  37.2657584  27.4852584  25.3072584  36.8107584
  26.7312584  25.2462584  38.1217584   7.6562584  31.3252584  23.8777584
   7.4062584  30.4172584  23.7077584   8.5532584  31.2702584  24.2067584
  32.4902584  14.0512584  30.3587584  33.3652584  13.7162584  30.1627584
  32.1152584  14.2582584  29.5027584  36.7262584   9.1342584  13.9957584
  37.3892584   9.1972584  13.3087584  36.3362584   8.2682584  13.8737584
   8.4362584  33.8162584  21.7087584   9.0772584  33.2332584  21.3017584
   7.6342584  33.2962584  21.7567584  25.2102584  15.4412584  37.8387584
  24.5192584  14.9952584  38.3277584  25.2932584  14.9392584  37.0277584
  33.9362584  12.0482584  28.4817584  33.6592584  12.5172584  27.6947584
  33.2402584  11.4112584  28.6397584  27.0892584  16.2172584  39.8537584
  26.6492584  15.9522584  39.0457584  26.4672584  16.0032584  40.5477584
  36.4112584  32.2002584  16.4577584  36.5592584  32.7532584  15.6907584
  36.6242584  31.3152584  16.1607584  31.3772584  12.8642584  39.8947584
  31.1132584  13.4562584  39.1907584  30.6282584  12.8522584  40.4917584
  34.2142584   9.0492584  33.9757584  33.3052584   8.8072584  33.7967584
  34.6522584   8.2182584  34.1597584  34.2482584  28.7852584  24.1527584
  33.3992584  28.5002584  23.8157584  34.6262584  27.9992584  24.5467584
  32.1692584   9.4632584  30.7327584  31.8662584   9.8312584  29.9027584
  31.6692584   9.9322584  31.4007584  29.7252584  32.3472584  26.8887584
  30.5132584  32.2602584  27.4247584  30.0522584  32.5012584  26.0027584
  33.5152584  15.9272584  34.5617584  33.4952584  15.1872584  35.1677584
  34.2982584  16.4192584  34.8097584  32.9312584  34.9482584  26.6197584
  32.7332584  34.0532584  26.3457584  32.0792584  35.3272584  26.8357584
  28.1722584  19.7852584  38.7237584  28.6782584  19.1732584  39.2577584
  28.6652584  19.8542584  37.9057584  34.8672584  15.6642584  39.1127584
  35.3862584  16.4382584  38.8927584  34.7072584  15.2342584  38.2727584
  24.2392584  18.2112584  40.7147584  24.1262584  19.1482584  40.8697584
  24.5532584  18.1532584  39.8117584  35.1882584   9.9782584  19.9157584
  34.8622584   9.2082584  20.3807584  34.7792584   9.9282584  19.0517584
  37.0602584  30.9192584  34.3387584  37.7132584  30.4452584  33.8247584
  36.3162584  31.0232584  33.7447584  30.1652584  38.2052584  17.2997584
  29.5112584  38.5422584  17.9117584  30.8372584  37.8132584  17.8587584
  37.2252584  17.7902584  17.9667584  36.2892584  17.6882584  18.1387584
  37.3652584  17.3452584  17.1317584  35.1872584  17.3692584  29.3327584
  36.0782584  17.2212584  29.6517584  34.6352584  16.8422584  29.9107584
  33.1282584  29.5332584  39.5557584  32.6232584  29.4522584  38.7477584
  33.6302584  30.3412584  39.4457584  24.0412584  38.0962584  21.2397584
  23.5142584  37.5102584  21.7827584  23.4722584  38.3192584  20.5037584
  29.2442584  36.2822584  31.9977584  29.4852584  35.7472584  31.2417584
  29.6012584  37.1492584  31.8017584  33.1982584  36.8852584  31.1967584
  32.5812584  36.3032584  30.7517584  32.8722584  37.7662584  31.0117584
  27.6602584  36.0322584  27.1217584  27.2082584  36.8422584  27.3597584
  27.1062584  35.3352584  27.4717584  34.8582584  26.2682584  31.0537584
  34.2032584  26.3552584  31.7467584  34.9862584  27.1602584  30.7307584
  34.3052584  36.2902584  24.9197584  33.8232584  35.7832584  25.5727584
  35.2032584  36.3152584  25.2497584  30.0402584  22.8182584  39.9057584
  30.2662584  23.7282584  40.1007584  29.5332584  22.8662584  39.0957584
  35.1822584  17.6472584  36.0387584  35.7732584  17.6982584  36.7897584
  34.6692584  18.4542584  36.0817584  36.6012584  28.8992584  23.1027584
  35.7092584  28.9072584  23.4497584  36.4892584  28.8852584  22.1527584
  29.8852584  19.8042584  36.7717584  29.9572584  18.9902584  36.2727584
  30.7772584  19.9822584  37.0707584  25.7472584  27.3602584  35.3017584
  25.9872584  26.7342584  35.9857584  26.5462584  27.8622584  35.1447584
  30.2862584  13.0152584  37.2367584  30.9862584  12.5872584  36.7447584
  29.6492584  13.2752584  36.5717584  36.5962584  29.7372584  27.4227584
  36.3122584  30.5492584  27.0027584  37.4852584  29.9222584  27.7247584
  37.1932584  11.7462584  19.3547584  36.4812584  11.1212584  19.4917584
  36.8172584  12.5942584  19.5887584  35.5592584  13.9012584  29.9207584
  35.9972584  14.4272584  29.2517584  35.2532584  13.1242584  29.4527584
  20.8992584   9.2422584  39.4137584  20.0022584   9.1092584  39.7187584
  21.4382584   9.1262584  40.1967584  28.1352584  12.8182584  28.3747584
  27.7752584  12.3402584  27.6277584  28.7172584  13.4702584  27.9837584
  26.7452584  21.8892584  39.9397584  26.8142584  21.3672584  40.7397584
  27.1322584  21.3382584  39.2597584  36.5982584  18.2112584  11.8357584
  36.9762584  18.0512584  10.9717584  36.0812584  17.4262584  12.0207584
  31.0072584  25.2232584  40.3337584  30.9702584  25.8162584  41.0837584
  31.8482584  25.4132584  39.9177584   9.7962584  24.8192584  38.2247584
   9.5622584  24.4762584  37.3627584  10.7282584  24.6192584  38.3177584
  31.5772584  24.8852584  37.1397584  31.6922584  25.7712584  36.7977584
  31.2312584  25.0122584  38.0237584  36.3692584  18.8122584  33.1047584
  35.4772584  19.0222584  32.8277584  36.2872584  18.5962584  34.0337584
  34.7092584  20.0832584  29.4467584  34.7782584  19.1302584  29.3867584
  34.7982584  20.2722584  30.3807584  35.3122584  21.5102584  34.6037584
  35.9552584  21.1102584  35.1907584  34.6462584  21.8712584  35.1887584
   8.1692584  22.3572584  37.4157584   8.4712584  22.4442584  38.3197584
   8.9372584  22.0492584  36.9347584  31.3062584  10.1692584  38.7347584
  31.9742584   9.8642584  38.1207584  31.5992584  11.0432584  38.9927584
   7.8762584  12.9152584  37.1997584   8.0152584  12.7692584  36.2647584
   8.0702584  13.8432584  37.3297584  35.2242584  34.2042584  10.8207584
  34.8452584  34.8182584  10.1907584  35.9842584  34.6652584  11.1757584
  28.3872584  13.4342584  35.0277584  27.5432584  13.6982584  35.3927584
  28.4492584  12.4982584  35.2177584  33.7372584  14.0132584  36.5587584
  33.0142584  13.4002584  36.4257584  34.5162584  13.5282584  36.2857584
  35.9532584  36.6182584  13.6677584  36.0692584  35.7192584  13.9757584
  36.6712584  36.7562584  13.0507584  34.2022584  16.1882584  31.5297584
  34.3572584  16.0012584  32.4557584  33.3682584  15.7592584  31.3357584
  10.4282584  27.1322584  35.4107584   9.8032584  26.4082584  35.4347584
  11.2762584  26.7252584  35.5877584  12.3762584  23.6792584  39.3507584
  12.4432584  23.0802584  38.6077584  13.2842584  23.8512584  39.6017584
  30.2482584  35.2562584  26.5757584  29.3112584  35.2542584  26.7697584
  30.3712584  34.5162584  25.9807584  33.2762584  23.4102584  33.5317584
  34.0232584  23.0032584  33.0927584  33.3612584  23.1432584  34.4467584
  33.9052584  37.3282584  11.8437584  34.7252584  36.9772584  12.1907584
  33.5252584  37.8172584  12.5737584  31.4492584  31.9772584  28.9877584
  31.4692584  31.1912584  29.5347584  32.3422584  32.0582584  28.6517584
  34.6022584  36.4782584  38.9777584  34.0592584  37.0092584  39.5617584
  35.2622584  37.0872584  38.6457584  32.4382584  23.5702584  29.8587584
  31.8742584  23.7742584  30.6057584  32.2212584  24.2352584  29.2057584
  35.0822584  11.3732584  11.4087584  34.3322584  10.8002584  11.5697584
  34.7642584  12.2502584  11.6197584  24.7822584  14.3792584  32.4847584
  25.1202584  13.4852584  32.5347584  25.4332584  14.8542584  31.9677584
  25.8262584  12.2272584  38.3187584  26.6392584  11.7292584  38.2337584
  25.7792584  12.4542584  39.2477584  36.4112584  20.1442584  36.9007584
  36.5792584  19.5882584  37.6617584  36.7692584  20.9982584  37.1437584
  36.6072584  11.6002584  26.6917584  36.4302584  10.8192584  27.2167584
  36.1002584  12.2932584  27.1157584  33.3352584  20.8322584  38.2467584
  32.6262584  20.6672584  38.8677584  34.0962584  21.0222584  38.7947584
  25.0732584  16.0592584  34.7417584  24.9512584  15.1102584  34.7117584
  24.2092584  16.4052584  34.9677584  28.7572584  24.1172584  36.0397584
  29.4352584  23.9372584  36.6907584  28.5802584  23.2672584  35.6357584
  37.0432584  11.0282584  39.3277584  36.5052584  11.3582584  40.0467584
  36.9132584  11.6602584  38.6207584  35.8912584  13.4152584  34.5927584
  36.4222584  14.0992584  35.0017584  36.4642584  12.6492584  34.5677584
   9.7102584  12.2252584  39.6137584   9.5332584  13.1642584  39.6567584
   9.1982584  11.9172584  38.8657584  27.3292584  24.6542584  39.5977584
  27.1152584  23.7392584  39.4187584  27.7702584  24.6362584  40.4477584
  29.1202584  26.8932584  38.0437584  28.8792584  27.6522584  38.5747584
  28.3992584  26.2752584  38.1657584  27.8532584  29.0882584  39.1727584
  28.0002584  29.3672584  40.0757584  27.7582584  29.9042584  38.6807584
   7.3142584  15.6082584  35.6557584   8.1942584  15.7422584  35.3017584
   6.8712584  16.4462584  35.5207584  33.0712584  22.6532584  36.0017584
  33.1132584  22.0312584  36.7287584  32.5472584  23.3792584  36.3387584
  34.1622584  34.5572584  32.7947584  35.0842584  34.6482584  33.0387584
  33.9992584  35.2862584  32.1967584  28.5442584  32.0182584  37.7747584
  29.2452584  32.5722584  37.4307584  28.0132584  32.6072584  38.3097584
  31.3072584  12.1502584  31.7427584  31.7812584  12.9102584  31.4037584
  31.7352584  11.9532584  32.5757584   7.0672584  17.6622584  38.0697584
   7.6332584  17.9312584  37.3457584   7.6462584  17.1832584  38.6627584
  35.3812584  20.9512584  39.9687584  36.2312584  21.3902584  39.9647584
  35.3982584  20.4022584  40.7527584   9.6272584  37.8822584  31.9417584
   8.9602584  37.1972584  31.9237584   9.3372584  38.5172584  31.2867584
  35.8062584  28.9872584  31.0007584  36.3962584  29.2972584  31.6867584
  35.7002584  29.7382584  30.4167584  31.7712584  34.6182584  30.3877584
  32.5052584  34.1682584  29.9687584  30.9952584  34.2772584  29.9417584
  29.1642584  38.1652584  14.9097584  28.6852584  38.9872584  15.0057584
  29.4862584  37.9702584  15.7897584   8.2262584  34.0382584  24.5907584
   7.4022584  33.6742584  24.9127584   8.4242584  33.5262584  23.8067584
   9.1272584  38.1222584  29.2617584   9.4402584  37.2182584  29.2747584
   8.7042584  38.2172584  28.4077584   9.2732584  36.7682584  14.1277584
   8.8412584  37.2092584  13.3967584   9.6602584  37.4782584  14.6407584
  32.6952584  33.7892584  39.4057584  33.5432584  33.3502584  39.3297584
  32.2372584  33.5672584  38.5947584  33.8682584  25.9982584  24.1787584
  33.4722584  26.2182584  25.0227584  34.0052584  25.0512584  24.2187584
   9.9292584  31.6762584  32.3237584  10.0822584  32.0452584  31.4547584
   9.7402584  32.4342584  32.8767584  10.2462584  35.2022584  26.1917584
   9.6052584  34.7282584  25.6627584  10.3092584  36.0632584  25.7787584
   8.4012584  32.8132584  39.5957584   7.9452584  32.0232584  39.8847584
   9.3122584  32.5392584  39.4877584  32.8662584  29.3242584  33.8697584
  33.1312584  30.1272584  33.4217584  32.2212584  28.9252584  33.2867584
  27.1342584  34.3972584  38.9997584  26.2482584  34.7532584  38.9367584
  27.5752584  34.7092584  38.2097584  34.6642584  34.2702584  17.1267584
  34.9512584  33.3672584  17.2567584  34.5892584  34.3642584  16.1767584
  34.3472584  33.6572584  29.4807584  34.4242584  33.0252584  28.7667584
  35.1362584  34.1942584  29.4127584  36.1912584  23.6842584  28.0037584
  35.8612584  23.4782584  28.8777584  35.7512584  23.0592584  27.4277584
  24.2182584  31.1442584  28.2887584  24.0742584  30.4492584  27.6457584
  23.9692584  31.9482584  27.8337584  31.8212584  38.1472584  13.8847584
  30.8742584  38.0342584  13.9607584  32.1752584  37.7382584  14.6747584
  31.3482584  36.9032584  19.2907584  32.1802584  36.4302584  19.3057584
  30.7172584  36.2902584  19.6677584  34.8232584  36.7772584  18.2057584
  34.7602584  35.8252584  18.1247584  34.7482584  36.9422584  19.1457584
  33.9112584  31.6712584  27.7367584  34.2402584  31.9642584  26.8867584
  33.6342584  30.7672584  27.5887584  35.8362584  31.8512584  12.7517584
  36.7402584  32.1562584  12.8197584  35.4232584  32.4582584  12.1377584
  25.2952584  37.7682584  24.4687584  26.0182584  38.3912584  24.5367584
  25.7142584  36.9372584  24.2467584  36.9052584  35.4692584  28.7717584
  36.7442584  35.9332584  27.9497584  36.4572584  35.9932584  29.4347584
  32.4962584  34.4442584  22.3927584  32.2452584  34.0312584  21.5667584
  31.8702584  35.1602584  22.5027584  20.7042584  36.3532584  25.9827584
  21.6402584  36.2842584  26.1697584  20.4572584  35.4842584  25.6667584
  24.2472584  35.2952584  38.8247584  23.5862584  35.5432584  39.4707584
  23.7452584  34.9282584  38.0967584  10.0732584  35.8972584  22.8867584
   9.2172584  35.4722584  22.8347584  10.4612584  35.7642584  22.0227584
  34.7862584  37.3572584  21.0577584  34.6452584  37.8052584  21.8917584
  35.6952584  37.0612584  21.0937584  17.0912584  36.7582584  28.1877584
  17.7412584  36.0572584  28.1407584  16.2542584  36.3212584  28.0297584
   7.8162584  33.5192584  30.4457584   8.7442584  33.3022584  30.5327584
   7.7842584  34.1502584  29.7277584  32.1332584  36.9862584  23.5137584
  32.8612584  36.5002584  23.9007584  32.5432584  37.7462584  23.1017584
  33.4542584  29.0102584  27.1527584  33.1532584  28.1702584  26.8067584
  34.3452584  28.8382584  27.4577584   8.1142584  38.3932584  20.5677584
   8.6122584  37.8322584  19.9717584   7.2712584  38.5172584  20.1317584
  30.8312584  37.6182584  37.9937584  31.0562584  37.0902584  38.7597584
  30.9082584  38.5232584  38.2957584  15.0392584  13.0882584  39.4507584
  15.4142584  13.1732584  40.3267584  14.5562584  12.2622584  39.4747584
  28.2852584  11.2812584  38.3377584  28.8222584  10.7002584  38.8767584
  28.8992584  11.9372584  38.0067584  26.2872584  33.6902584  28.2507584
  26.0382584  33.9552584  29.1357584  25.7122584  32.9512584  28.0507584
  31.8822584  34.9302584  34.6087584  32.6542584  34.8422584  34.0497584
  31.2142584  34.3922584  34.1827584  26.9822584  35.7472584  33.9127584
  27.7322584  35.5772584  33.3427584  26.7962584  36.6792584  33.7917584
  33.2722584  37.0902584  15.9467584  33.7112584  37.3802584  16.7467584
  33.7242584  36.2812584  15.7057584  35.8962584  31.6702584  30.9287584
  36.7502584  32.0712584  30.7697584  35.2752584  32.2402584  30.4737584
  26.3772584  30.8262584  29.9927584  26.0692584  30.4862584  30.8327584
  25.5892584  30.8812584  29.4527584  29.6462584  31.2662584  35.0067584
  30.4832584  31.7312584  35.0267584  29.1142584  31.7562584  34.3797584
  36.5262584  28.5412584  20.2307584  37.3322584  28.9422584  19.9047584
  35.9062584  28.6292584  19.5067584  36.9322584   9.6842584  33.3467584
  37.1652584   9.0322584  32.6857584  35.9902584   9.5692584  33.4757584
  21.8072584  32.7442584  39.4877584  20.9492584  33.1672584  39.5087584
  22.2822584  33.1982584  38.7917584   8.6772584  28.9472584  36.7407584
   9.1842584  28.3182584  36.2267584   8.0712584  29.3382584  36.1107584
  33.5942584  18.5632584  40.2897584  33.5742584  19.1142584  41.0717584
  33.4462584  19.1712584  39.5647584  36.2932584  34.8662584  36.6057584
  35.7172584  34.9202584  37.3677584  35.7852584  34.3812584  35.9547584
  34.6222584  33.0632584  35.1837584  33.8072584  32.9752584  34.6907584
  34.5612584  32.3972584  35.8687584  33.6452584  26.6772584  34.5997584
  33.7912584  27.5082584  34.1487584  32.7102584  26.5032584  34.4887584
  33.8212584  13.6032584  40.7757584  32.9972584  13.2062584  40.4937584
  33.8162584  14.4732584  40.3767584  10.0362584  34.1462584  33.7687584
  10.9622584  33.9312584  33.6537584  10.0412584  35.0022584  34.1977584
  31.0702584  30.2002584  37.7997584  31.7562584  30.6812584  37.3377584
  30.2862584  30.7392584  37.6917584  35.2602584  23.4432584  30.8107584
  35.2672584  24.3782584  30.6027584  34.3822584  23.2802584  31.1537584
  33.2572584  25.9722584  39.4907584  33.9472584  25.3422584  39.2857584
  33.6182584  26.8182584  39.2257584  37.0992584  36.4672584  32.4857584
  36.5692584  36.8162584  33.2027584  37.2352584  35.5472584  32.7127584
  34.7492584  31.7352584  39.0747584  35.3882584  32.2352584  39.5817584
  35.2522584  31.3712584  38.3467584  35.0032584  26.3522584  37.2577584
  34.5532584  26.7382584  36.5067584  35.0642584  25.4202584  37.0477584
  28.0162584  28.8732584  35.1657584  28.6352584  29.6002584  35.2307584
  28.0032584  28.6522584  34.2337584  33.3102584   9.1112584  37.1587584
  33.0802584   8.5222584  36.4407584  34.1032584   8.7312584  37.5367584
  31.2912584  20.6902584  40.0047584  30.8982584  21.5632584  39.9967584
  30.5542584  20.0972584  40.1547584  36.2712584  30.4442584  37.1137584
  36.9862584  29.9402584  37.5027584  36.6622584  30.8622584  36.3467584
  33.6512584  30.5372584  36.4447584  34.4932584  30.1202584  36.6277584
  33.3292584  30.0922584  35.6597584  31.4632584  37.6492584  35.2827584
  31.4802584  37.3832584  36.2017584  31.6632584  36.8492584  34.7977584
  26.5902584  31.2622584  35.8577584  26.7012584  30.5402584  35.2387584
  27.3052584  31.1542584  36.4837584  27.9312584  12.3362584  30.8667584
  28.0562584  12.3862584  29.9197584  28.8022584  12.4872584  31.2327584
  36.2132584  37.2472584  34.9527584  37.0552584  37.5982584  35.2447584
  36.0392584  36.5162584  35.5457584  24.0292584   9.6442584  37.7097584
  24.6692584   9.0292584  38.0697584  24.3162584  10.5012584  38.0247584
  33.3512584  34.8382584  14.5287584  32.8602584  35.6472584  14.6717584
  33.0032584  34.4892584  13.7087584  24.2332584  36.8462584  35.4377584
  24.7742584  36.9402584  36.2217584  24.3682584  35.9402584  35.1607584
  30.8132584  33.3872584  32.6957584  30.0452584  33.0332584  32.2467584
  31.3432584  33.7722584  31.9977584  10.3662584  38.1322584  34.4847584
  10.0882584  37.9342584  33.5907584  10.8022584  38.9822584  34.4187584
  25.7672584  35.0072584  30.5987584  26.5902584  35.4402584  30.8247584
  25.1282584  35.3722584  31.2097584  31.1512584  10.1012584  33.9817584
  30.2772584  10.3802584  34.2567584  31.1942584   9.1752584  34.2207584
  35.9992584  24.5602584  39.6587584  36.6082584  25.2892584  39.5437584
  36.5602584  23.7892584  39.7417584  36.5512584  14.9002584  32.3617584
  36.1622584  14.6052584  31.5387584  36.2192584  14.2872584  33.0177584
  31.7592584  36.3472584  40.2077584  32.1212584  35.5022584  39.9417584
  32.3752584  36.6772584  40.8617584  23.2212584  37.6942584  29.2097584
  22.2842584  37.6072584  29.0327584  23.3292584  37.3592584  30.0997584
  27.5792584  32.6422584  33.8237584  27.2762584  33.5412584  33.9497584
  27.0322584  32.1202584  34.4107584  11.7562584  34.2962584  36.5937584
  10.8212584  34.4622584  36.7107584  11.8942584  33.4252584  36.9677584
  17.1942584  34.6672584  32.5887584  18.0212584  34.1962584  32.6937584
  17.4542584  35.5792584  32.4527584  20.3072584  37.6812584  28.7237584
  20.6142584  37.0922584  28.0347584  19.5382584  38.1092584  28.3477584
  26.5952584  25.4382584  44.0817584  26.5002584  24.5602584  44.4517584
  25.8302584  25.5432584  43.5167584  14.1572584  35.7082584  44.7527584
  13.4522584  35.1512584  45.0827584  14.1822584  36.4472584  45.3607584
   7.8292584  22.5072584  49.1557584   7.0062584  22.8272584  48.7837584
   8.1022584  21.8062584  48.5647584  18.4192584  19.7822584  46.3237584
  17.8352584  20.2322584  46.9337584  18.8722584  19.1312584  46.8597584
  29.2732584  17.9382584  46.9557584  29.1842584  18.1722584  46.0317584
  29.9322584  18.5452584  47.2937584  35.2302584  13.9972584  46.1687584
  34.2902584  14.1172584  46.0327584  35.4092584  13.1132584  45.8497584
  25.5562584  29.7932584  41.3007584  24.9022584  30.4832584  41.1867584
  25.4722584  29.2512584  40.5167584  17.8782584  24.4182584  47.2847584
  18.3272584  25.2592584  47.3687584  17.0702584  24.5272584  47.7867584
   9.5822584  29.2042584  44.4657584  10.3752584  29.7402584  44.4667584
   9.8662584  28.3542584  44.8017584  20.7232584  23.1122584  41.1547584
  20.0942584  22.4112584  41.3257584  20.2712584  23.6972584  40.5467584
  18.9532584  31.5522584  49.1627584  18.8832584  32.3162584  48.5917584
  19.2692584  30.8522584  48.5907584  21.7242584  34.4832584  42.5107584
  22.3482584  34.4772584  41.7847584  22.1652584  33.9982584  43.2087584
   8.7822584  16.3022584  45.7577584   9.1062584  15.5142584  45.3227584
   9.5682584  16.7282584  46.1007584  35.7282584  24.0052584  48.2627584
  35.6422584  24.5832584  47.5047584  35.3812584  24.5152584  48.9947584
  15.5472584  14.8182584  44.1217584  16.2112584  15.3402584  43.6717584
  15.1812584  15.4112584  44.7787584  14.9872584  22.2042584  47.7117584
  14.3522584  21.9432584  48.3787584  15.5582584  21.4422584  47.6127584
  29.6482584  12.0392584  43.2837584  28.8752584  12.0092584  42.7197584
  29.9912584  12.9262584  43.1727584  18.3852584  34.7312584  42.1777584
  18.4442584  35.6812584  42.2797584  18.8322584  34.3792584  42.9467584
  21.7262584  27.9602584  48.4267584  21.2142584  27.3952584  49.0047584
  21.1002584  28.6142584  48.1147584  12.1102584  22.5142584  46.6737584
  12.4362584  21.7152584  47.0887584  11.5892584  22.9422584  47.3527584
  10.1932584  32.1552584  45.6127584   9.7532584  31.5652584  46.2247584
  10.9842584  31.6842584  45.3507584  14.5702584  37.2462584  42.2997584
  13.8742584  36.7212584  41.9047584  14.4802584  37.0942584  43.2407584
  22.8832584  27.0412584  45.1687584  23.0602584  27.0372584  44.2287584
  23.4412584  26.3472584  45.5207584  13.2002584   9.3142584  45.0827584
  14.0492584   8.9052584  44.9137584  13.3542584  10.2492584  44.9507584
  16.6052584  17.1552584  47.1837584  17.0942584  16.8892584  47.9627584
  17.2122584  17.7162584  46.7007584  15.8562584  31.5192584  46.3467584
  16.3572584  31.1372584  47.0677584  16.4982584  31.6442584  45.6477584
  19.3842584  11.4612584  47.2687584  19.7762584  11.9412584  47.9987584
  20.0192584  10.7742584  47.0637584  11.6832584  12.7492584  49.2307584
  11.0122584  12.1112584  49.4707584  11.9452584  12.5012584  48.3447584
  19.8092584  11.1762584  43.2657584  19.4412584  11.5462584  42.4637584
  20.4682584  11.8132584  43.5437584  20.7982584  18.1272584  43.7877584
  21.2752584  17.3802584  44.1477584  21.4142584  18.8582584  43.8507584
  17.8742584  19.7192584  41.0947584  18.1562584  20.3992584  40.4827584
  17.7872584  20.1732584  41.9337584  13.3912584  37.2202584  48.0117584
  12.8162584  37.7562584  48.5567584  14.1322584  37.7912584  47.8087584
  29.3522584  20.4152584  49.3137584  29.3962584  21.3662584  49.2217584
  30.0112584  20.0832584  48.7037584  17.3362584  16.9782584  43.5657584
  17.9932584  17.0392584  42.8727584  17.7872584  17.2872584  44.3517584
  19.7092584  17.8262584  47.6637584  20.1172584  17.3902584  46.9147584
  19.8112584  17.2072584  48.3867584  15.6952584  12.5722584  49.2317584
  16.0562584  12.8882584  48.4037584  16.1742584  11.7622584  49.4087584
  11.3652584  16.4742584  47.1777584  10.7932584  16.7652584  47.8877584
  11.5162584  17.2602584  46.6527584  14.8392584  24.0232584  41.1807584
  15.3312584  23.3402584  41.6357584  15.3432584  24.8232584  41.3307584
  16.9652584  11.3182584  46.2607584  17.8142584  11.1692584  46.6787584
  16.9932584  10.7892584  45.4637584  26.9692584  25.4552584  47.4127584
  26.8192584  26.2302584  46.8727584  26.3232584  25.5232584  48.1157584
  16.6882584  24.3652584  44.4937584  16.9592584  24.2332584  45.4027584
  17.0992584  25.1912584  44.2387584  19.5232584  31.8732584  44.6517584
  18.7642584  31.3572584  44.3807584  20.2682584  31.4402584  44.2357584
  11.0492584  36.7012584  46.7297584  10.7262584  37.5562584  46.4447584
  11.9332584  36.8732584  47.0517584  26.1842584  16.7812584  46.5887584
  27.1022584  16.8122584  46.8597584  26.0382584  15.8692584  46.3397584
  12.9962584  24.5122584  44.9317584  13.7882584  24.0762584  44.6177584
  12.8112584  24.0952584  45.7737584  22.8282584  20.0852584  44.3427584
  23.6482584  19.6082584  44.4657584  22.6572584  20.4932584  45.1927584
  16.0812584  28.8502584  42.2187584  15.4762584  28.2122584  42.5967584
  15.9652584  29.6362584  42.7527584  20.6372584   8.9982584  45.7447584
  21.4542584   8.9772584  46.2417584  20.9112584   8.9442584  44.8287584
  19.0542584  17.3052584  41.4377584  18.6662584  18.1362584  41.1657584
  19.9982584  17.4602584  41.4117584  21.9252584  13.4642584  47.3557584
  22.4812584  12.6882584  47.2867584  22.4612584  14.1032584  47.8257584
  20.8692584  20.4742584  48.9307584  20.1512584  20.8812584  49.4167584
  20.5842584  19.5712584  48.7937584  10.3912584  23.7212584  48.6147584
   9.7932584  23.8482584  47.8787584   9.9192584  23.1412584  49.2107584
  20.1462584  26.6252584  45.3307584  20.0192584  26.9122584  46.2347584
  21.0792584  26.7612584  45.1647584  12.4822584  25.0312584  41.8637584
  13.3912584  24.8352584  42.0927584  12.2882584  24.4452584  41.1327584
  25.1572584  13.2122584  40.9537584  24.2452584  13.4802584  41.0697584
  25.3912584  12.7932584  41.7827584  13.2752584  20.1902584  43.7457584
  12.4552584  20.6832584  43.7087584  13.9132584  20.8122584  44.0947584
  19.0732584  20.3752584  43.7597584  18.7892584  20.3972584  44.6727584
  19.4772584  19.5142584  43.6537584  13.5752584  12.3122584  46.8977584
  14.0172584  12.5952584  47.6977584  13.9702584  12.8422584  46.2047584
  28.1862584  25.2512584  42.1057584  28.5432584  26.1252584  41.9467584
  27.5982584  25.3642584  42.8517584  25.1672584  18.6302584  44.9597584
  25.7572584  19.3742584  45.0847584  25.4192584  18.0072584  45.6407584
  15.6992584  37.9842584  45.3397584  16.4532584  38.2502584  44.8127584
  15.8552584  38.3802584  46.1967584  25.0502584  14.2312584  46.9397584
  25.9672584  14.0462584  46.7377584  24.5612584  13.8412584  46.2157584
  15.0172584  18.1392584  42.5217584  15.8922584  17.8292584  42.7537584
  14.5632584  18.2282584  43.3597584  34.3262584  21.9242584  47.1957584
  33.4062584  22.1582584  47.0737584  34.7242584  22.7082584  47.5737584
  12.5692584  14.2852584  45.1597584  13.1312584  15.0272584  44.9367584
  12.3202584  14.4382584  46.0717584  30.7802584  19.7102584  43.9607584
  29.8882584  20.0562584  43.9427584  31.3052584  20.3782584  43.5197584
  24.2522584  12.7252584  44.3137584  24.5162584  11.8622584  44.6327584
  23.5262584  12.5472584  43.7147584  36.0242584  15.7062584  42.9077584
  36.0632584  15.4122584  43.8177584  36.7332584  15.2312584  42.4727584
  12.8672584  32.0542584  40.7017584  13.2882584  32.3032584  41.5247584
  13.5772584  31.6992584  40.1677584  10.2212584  26.7022584  42.0527584
  10.3502584  27.6502584  42.0817584  11.0662584  26.3532584  41.7717584
  10.7482584  21.2162584  43.8947584   9.9152584  20.8482584  44.1917584
  10.6552584  22.1592584  44.0307584  17.3132584  10.1972584  44.0317584
  16.7632584  10.2682584  43.2507584  18.1672584  10.5282584  43.7537584
  14.9952584  24.9782584  47.6837584  14.8082584  24.0482584  47.8087584
  15.0262584  25.3392584  48.5697584  20.2272584  22.8362584  43.8607584
  20.6232584  23.1112584  43.0347584  19.7952584  22.0072584  43.6557584
  14.4042584  16.4402584  46.0057584  13.8352584  17.1922584  46.1707584
  15.1622584  16.5832584  46.5717584  28.2582584  18.0742584  42.6337584
  28.7262584  17.4512584  43.1887584  28.7382584  18.0652584  41.8047584
  12.0882584  27.2872584  47.1107584  12.4852584  28.1322584  47.3237584
  12.6022584  26.9602584  46.3727584   8.0712584  37.5672584  41.8367584
   8.3712584  38.0792584  41.0857584   8.2312584  36.6572584  41.5867584
  23.3452584  25.2692584  47.5327584  22.6402584  24.9752584  46.9547584
  22.9032584  25.5112584  48.3467584  16.9092584  25.6982584  41.2637584
  17.6742584  25.3232584  40.8277584  17.2712584  26.1952584  41.9977584
  21.5802584  29.3692584  41.6707584  20.7102584  29.6542584  41.3917584
  22.0422584  29.1752584  40.8557584  34.1232584  20.3422584  42.4807584
  34.1142584  20.9172584  43.2467584  34.8272584  19.7182584  42.6557584
  23.0272584  11.7452584  42.1127584  23.5862584  10.9692584  42.0747584
  22.6822584  11.8362584  41.2247584  24.0922584  38.3782584  46.2977584
  23.9432584  37.6432584  46.8937584  23.8092584  38.0542584  45.4427584
  17.0232584  35.6632584  46.0207584  16.1262584  35.8812584  45.7667584
  17.5612584  35.9772584  45.2937584  18.2802584  34.1412584  47.9447584
  18.0872584  34.6232584  48.7477584  17.9532584  34.7042584  47.2427584
  21.1602584  23.9662584  46.4107584  21.3112584  23.0282584  46.2967584
  20.5762584  24.2042584  45.6907584  16.9152584  36.5042584  49.2357584
  16.6152584  36.4962584  48.3277584  16.3402584  37.1322584  49.6727584
  21.0532584  15.1732584  43.0897584  20.2612584  15.6362584  42.8137584
  20.7442584  14.5282584  43.7257584  17.6992584  28.3012584  46.7297584
  17.0492584  27.9482584  46.1227584  17.1882584  28.8122584  47.3577584
  20.2842584  13.5602584  45.2837584  20.8762584  13.5512584  46.0357584
  19.5912584  12.9422584  45.5167584   7.2312584  29.9122584  45.3187584
   8.1242584  29.5892584  45.2027584   6.6832584  29.2712584  44.8647584
  22.9542584  34.3162584  45.3657584  22.8342584  33.5342584  44.8257584
  22.1132584  34.4332584  45.8087584  12.9912584  29.8312584  47.3847584
  13.6472584  30.2142584  47.9667584  12.1752584  29.8692584  47.8837584
  24.6782584  36.1062584  48.3597584  23.8322584  35.7232584  48.5897584
  25.0652584  35.4832584  47.7447584   9.5032584  27.2212584  46.1437584
   8.8562584  27.0602584  46.8317584  10.3482584  27.0862584  46.5727584
  21.4992584  37.2162584  47.9917584  21.9492584  36.5812584  48.5477584
  21.1602584  36.6982584  47.2617584  13.6892584  27.3382584  42.9997584
  13.0972584  27.9532584  42.5667584  13.1902584  26.5232584  43.0547584
  14.4582584  31.5232584  44.0117584  14.7662584  32.2862584  43.5237584
  14.8392584  31.6262584  44.8837584  16.3602584  13.8722584  46.3677584
  16.0442584  14.1052584  45.4947584  16.6122584  12.9522584  46.2947584
  10.4402584  23.9182584  43.8297584  10.8292584  24.5762584  43.2537584
  10.9932584  23.9262584  44.6107584  18.4642584  37.8582584  41.3737584
  18.3372584  37.5352584  40.4817584  17.9192584  38.6442584  41.4237584
  13.8982584  33.3012584  47.6437584  14.5072584  32.8182584  47.0857584
  13.2452584  33.6532584  47.0387584   7.9742584  26.2122584  43.6897584
   8.5682584  26.2672584  44.4387584   8.4992584  26.5032584  42.9447584
  18.0992584  30.7062584  42.5647584  18.0642584  29.8222584  42.1987584
  17.6272584  31.2472584  41.9317584   7.8082584  23.1772584  43.0527584
   7.1792584  23.8882584  43.1717584   8.6592584  23.5772584  43.2297584
  27.2792584  11.4662584  42.0377584  27.6262584  10.7822584  41.4647584
  26.4182584  11.1422584  42.3027584  18.0592584  26.9062584  43.3837584
  17.8652584  27.8382584  43.4887584  18.7552584  26.7332584  44.0187584
  20.8372584   8.8772584  42.4667584  20.0562584   8.6542584  41.9607584
  20.8422584   9.8342584  42.4927584  10.3672584   9.0172584  45.1937584
  11.3222584   9.0842584  45.1877584  10.0712584   9.8422584  45.5777584
  16.6142584  29.8892584  48.5937584  16.0102584  29.9162584  49.3357584
  17.4042584  30.3272584  48.9117584  32.6572584  33.6052584  49.2027584
  31.7702584  33.8532584  48.9437584  33.0942584  33.3842584  48.3797584
  20.4672584  34.4552584  46.1837584  20.2712584  34.2892584  47.1057584
  19.7062584  34.1182584  45.7117584  23.8592584  20.7172584  41.8167584
  23.3372584  21.4722584  41.5437584  23.4252584  20.3992584  42.6087584
  21.6942584  21.2862584  46.4917584  21.5662584  21.1082584  47.4237584
  20.8112584  21.2752584  46.1217584  26.2192584  23.1322584  46.2257584
  26.3722584  23.9752584  46.6517584  26.0152584  22.5342584  46.9447584
  19.3062584  26.7832584  48.3567584  18.9382584  27.0112584  49.2107584
  18.7582584  27.2522584  47.7267584  32.4132584  23.3002584  41.9727584
  32.5112584  22.5202584  41.4257584  31.6302584  23.7352584  41.6317584
  26.0612584  36.0442584  43.9687584  26.9202584  35.7622584  44.2817584
  25.4462584  35.7112584  44.6217584  15.5512584  12.6122584  42.4797584
  15.6422584  13.2552584  43.1827584  14.7302584  12.1582584  42.6737584
  18.3952584  37.1972584  44.0887584  18.4052584  38.0282584  44.5647584
  18.7982584  37.4002584  43.2437584   8.8742584  36.8842584  48.2017584
   9.5432584  36.3752584  47.7457584   8.0892584  36.3382584  48.1637584
   8.6062584  35.1892584  41.0157584   9.3822584  35.5022584  40.5507584
   8.4282584  34.3302584  40.6337584  29.5592584  23.0642584  49.3077584
  28.9332584  23.1002584  50.0307584  30.3312584  23.5262584  49.6357584
  20.1492584  29.8002584  46.9837584  20.6792584  30.2402584  46.3187584
  19.5962584  29.1952584  46.4887584  10.6342584  14.6152584  42.5247584
  11.1962584  15.2822584  42.1297584  11.1692584  14.2332584  43.2207584
  24.2052584  32.0322584  40.7187584  24.6602584  32.8022584  41.0597584
  23.3342584  32.3522584  40.4827584  25.4522584  21.0322584  48.0557584
  24.9002584  20.4042584  47.5897584  24.8522584  21.4842584  48.6487584
   7.3302584  11.9932584  46.4567584   7.1852584  11.0792584  46.2147584
   7.2662584  12.0012584  47.4117584  11.9412584  34.8642584  42.7007584
  12.0242584  34.1432584  43.3247584  11.1212584  35.2952584  42.9387584
  12.7112584  29.2982584  41.2537584  11.8062584  29.3372584  40.9437584
  13.0622584  30.1712584  41.0797584  15.9262584  33.7202584  43.4037584
  16.6462584  33.7902584  42.7777584  15.4862584  34.5692584  43.3587584
  12.0622584  30.4402584  45.1127584  12.6772584  30.7712584  44.4577584
  12.5812584  30.3692584  45.9147584   8.3772584  32.3022584  42.9017584
   8.8972584  31.8062584  42.2697584   8.8152584  32.1562584  43.7397584
  33.6942584  31.8442584  44.5097584  34.4612584  31.7302584  43.9487584
  33.3462584  32.7022584  44.2687584  25.6802584  16.4622584  42.2267584
  26.3932584  16.8162584  42.7577584  25.2442584  17.2342584  41.8647584
  21.6462584  29.3442584  44.3977584  21.5612584  29.2012584  43.4547584
  22.2162584  28.6362584  44.6967584  22.9912584  37.1572584  43.8727584
  22.8552584  36.2312584  43.6727584  22.3232584  37.6142584  43.3617584
  16.2792584   9.6102584  41.7947584  15.5952584   8.9402584  41.7707584
  15.8662584  10.3882584  41.4217584  21.8642584  16.2302584  45.9747584
  22.5562584  16.1092584  45.3247584  21.5932584  15.3412584  46.2037584
  19.4362584  14.7802584  48.4967584  20.2572584  14.3532584  48.2537584
  18.7702584  14.3362584  47.9717584  32.1542584  23.5512584  47.0347584
  31.2652584  23.7782584  46.7607584  32.6852584  24.3042584  46.7767584
  26.5812584  20.4582584  42.3277584  25.6382584  20.5532584  42.1927584
  26.7542584  19.5312584  42.1607584  34.9542584  11.2192584  44.5687584
  35.4092584  10.4522584  44.2207584  34.2342584  11.3692584  43.9567584
  23.0632584  15.4512584  41.2797584  22.3962584  15.2862584  41.9467584
  23.6502584  16.0912584  41.6807584  32.6442584  15.4042584  46.1187584
  32.0792584  14.6412584  45.9977584  32.9572584  15.6132584  45.2377584
  23.9012584  15.4402584  44.5057584  24.3902584  15.9492584  43.8587584
  23.9782584  14.5342584  44.2057584  36.7262584   9.1342584  43.9957584
  37.3892584   9.1972584  43.3087584  36.3362584   8.2682584  43.8737584
   7.7522584  11.8712584  42.7257584   8.0972584  12.3762584  41.9897584
   6.8132584  11.8042584  42.5517584  32.6462584  31.4352584  46.9667584
  33.3572584  31.0262584  47.4607584  33.0192584  31.5992584  46.1007584
  27.0222584  20.5962584  45.4597584  27.4812584  20.7562584  46.2837584
  26.7482584  21.4642584  45.1647584   8.8892584  22.9972584  46.2737584
   8.2672584  22.9472584  45.5467584   8.9552584  22.0982584  46.5947584
  28.8192584  27.9212584  41.8227584  29.5972584  27.5172584  42.2057584
  28.5792584  28.6132584  42.4387584  36.4112584  32.2002584  46.4577584
  36.5592584  32.7532584  45.6907584  36.6242584  31.3152584  46.1607584
  32.9302584  27.5802584  48.7997584  32.0432584  27.5622584  49.1587584
  33.3802584  26.8582584  49.2367584  23.8472584  18.0032584  47.7197584
  23.4792584  17.5362584  46.9687584  24.7512584  17.6952584  47.7747584
  25.5362584  34.1812584  46.6627584  26.0592584  33.4342584  46.3707584
  24.7902584  34.2002584  46.0637584  11.9862584  34.2472584  45.8677584
  11.5462584  35.0712584  46.0797584  11.2732584  33.6292584  45.7077584
   7.2242584  14.7692584  47.9087584   6.6462584  14.3282584  47.2847584
   7.9022584  15.1712584  47.3647584  19.2342584  12.2232584  40.9287584
  18.6422584  12.9462584  40.7217584  19.9092584  12.2642584  40.2507584
  30.1652584  38.2052584  47.2997584  29.5112584  38.5422584  47.9117584
  30.8372584  37.8132584  47.8587584  37.2252584  17.7902584  47.9667584
  36.2892584  17.6882584  48.1387584  37.3652584  17.3452584  47.1317584
   9.8302584  17.3612584  49.2537584  10.2532584  17.5632584  50.0887584
   8.9642584  17.7622584  49.3207584  13.2592584  11.9392584  43.9547584
  12.9062584  12.8032584  44.1687584  12.5692584  11.5202584  43.4397584
  27.3562584  11.6832584  47.7937584  27.9822584  11.1172584  48.2467584
  26.6222584  11.7642584  48.4017584  13.0802584  18.7152584  45.9837584
  12.8292584  19.2712584  46.7217584  13.0662584  19.3002584  45.2267584
  23.1452584  24.3792584  41.2947584  22.2632584  24.0412584  41.4477584
  23.5842584  23.6872584  40.7997584  29.3582584  16.2022584  49.2547584
  30.2722584  15.9182584  49.2227584  29.3212584  16.9582584  48.6687584
  31.5802584  19.3322584  47.8577584  31.8882584  19.7792584  48.6457584
  32.2922584  19.4402584  47.2267584  31.6242584  16.6672584  40.7857584
  32.1932584  17.2672584  40.3037584  32.1432584  16.4032584  41.5457584
  27.6392584  14.1592584  46.5707584  27.8832584  13.3732584  47.0587584
  28.4742584  14.5342584  46.2877584  30.2342584  34.1332584  48.3677584
  29.4102584  34.5492584  48.1147584  30.2522584  33.3142584  47.8727584
   8.3972584  26.7662584  48.7787584   8.9802584  26.8942584  49.5277584
   7.6072584  26.3762584  49.1527584  31.9812584  10.5492584  46.5187584
  31.3772584   9.8062584  46.5317584  32.8512584  10.1502584  46.5237584
  34.9592584  22.0332584  44.4667584  34.9322584  22.2762584  45.3917584
  35.0942584  22.8612584  44.0047584  31.6982584  12.2202584  48.9567584
  31.8592584  11.5602584  48.2827584  32.5622584  12.3972584  49.3307584
  35.0852584  24.3942584  42.4337584  34.2562584  23.9292584  42.3147584
  35.4632584  24.4382584  41.5557584  11.5992584  19.3042584  41.6677584
  10.8932584  19.8772584  41.9667584  12.3172584  19.4682584  42.2797584
  34.4312584  13.4042584  48.6807584  34.5842584  14.3252584  48.8937584
  34.7542584  13.3092584  47.7847584  23.9792584  26.8552584  42.3007584
  23.9152584  25.9642584  41.9567584  24.6062584  27.2902584  41.7237584
  15.7072584  27.3592584  45.3137584  15.6382584  26.4292584  45.5297584
  15.0672584  27.4912584  44.6147584   8.1082584  20.6322584  44.1327584
   7.9602584  21.2942584  43.4577584   7.4382584  19.9682584  43.9687584
  30.2142584  16.8682584  44.1247584  30.4082584  17.8042584  44.0697584
  30.6312584  16.5842584  44.9387584  25.5902584  10.2012584  45.1267584
  25.3652584   9.4662584  45.6967584  26.5462584  10.2412584  45.1537584
   8.1722584  20.2182584  47.0857584   7.9992584  20.0032584  46.1687584
   8.0312584  19.3962584  47.5557584  30.2812584  14.4792584  42.9057584
  30.3112584  15.3972584  43.1747584  29.7702584  14.4822584  42.0967584
  26.6232584  37.4522584  41.4887584  27.5802584  37.4442584  41.4827584
  26.3832584  36.9322584  42.2557584  15.1162584   9.3632584  47.6807584
  15.5792584   9.8382584  48.3707584  14.8052584  10.0462584  47.0867584
  33.2562584  14.6362584  43.4927584  33.9692584  14.9102584  42.9157584
  32.6692584  14.1352584  42.9267584  32.6052584  29.2492584  42.1517584
  32.6932584  29.4342584  41.2167584  33.4172584  28.7992584  42.3847584
  36.5982584  18.2112584  41.8357584  36.9762584  18.0512584  40.9717584
  36.0812584  17.4262584  42.0207584  28.9572584  21.7952584  43.0037584
  28.9672584  22.1412584  42.1117584  28.1492584  21.2842584  43.0537584
  35.2242584  34.2042584  40.8207584  34.8452584  34.8182584  40.1907584
  35.9842584  34.6652584  41.1757584  35.9532584  36.6182584  43.6677584
  36.0692584  35.7192584  43.9757584  36.6712584  36.7562584  43.0507584
  29.6262584  32.9052584  41.4387584  28.8502584  32.8332584  41.9947584
  29.6992584  32.0492584  41.0167584  26.7502584  27.6932584  45.4117584
  27.0212584  26.9352584  44.8947584  26.7652584  28.4232584  44.7927584
  34.1332584  19.0052584  46.1677584  34.4902584  19.8702584  46.3657584
  34.7362584  18.6392584  45.5197584   8.9072584  13.1822584  44.8467584
   8.5862584  12.7652584  44.0467584   8.2792584  12.9232584  45.5207584
  33.9052584  37.3282584  41.8437584  34.7252584  36.9772584  42.1907584
  33.5252584  37.8172584  42.5737584  31.3692584  26.9432584  42.3857584
  31.7272584  27.8082584  42.1847584  32.0212584  26.5412584  42.9607584
  35.0822584  11.3732584  41.4087584  34.3322584  10.8002584  41.5697584
  34.7642584  12.2502584  41.6197584  31.1942584  13.1412584  45.6907584
  31.0782584  12.9572584  44.7587584  31.4412584  12.2992584  46.0727584
  12.4712584  19.9902584  48.1677584  12.0382584  19.3572584  48.7417584
  12.7682584  20.6832584  48.7567584  34.6672584  16.7302584  47.9967584
  34.2722584  17.4902584  47.5687584  34.6462584  16.0432584  47.3307584
  11.8322584  16.6402584  40.9807584  11.7432584  17.5762584  41.1597584
  12.7732584  16.4742584  41.0357584  10.9792584  11.5732584  46.1607584
  11.9332584  11.6502584  46.1937584  10.6962584  12.3182584  45.6307584
  25.7092584  34.1352584  41.3367584  25.8062584  35.0372584  41.6427584
  26.3902584  34.0342584  40.6707584  29.7402584  24.0112584  44.9077584
  29.0822584  24.5222584  44.4357584  29.6832584  23.1352584  44.5267584
  29.1642584  38.1652584  44.9097584  28.6852584  38.9872584  45.0057584
  29.4862584  37.9702584  45.7897584  23.4302584  11.0272584  47.6557584
  23.6912584  10.1512584  47.3727584  24.2502584  11.4542584  47.9017584
  27.5222584  32.5422584  43.4437584  26.7982584  33.0312584  43.0547584
  27.4432584  32.7042584  44.3837584  34.3422584  29.8492584  48.7457584
  34.2102584  30.4332584  49.4927584  33.5592584  29.2992584  48.7287584
  28.3072584  10.5452584  45.3587584  28.3042584  11.0942584  46.1437584
  28.7542584  11.0742584  44.6977584   9.2732584  36.7682584  44.1277584
   8.8412584  37.2092584  43.3967584   9.6602584  37.4782584  44.6407584
  24.6522584  28.0492584  47.5527584  23.7642584  27.7042584  47.6467584
  24.9142584  27.7982584  46.6667584  27.1252584  31.9812584  46.0717584
  26.6522584  31.1492584  46.0887584  28.0392584  31.7402584  46.2227584
  28.7192584  35.4582584  44.5537584  29.0262584  35.1372584  43.7057584
  28.9942584  36.3752584  44.5767584  29.7592584  31.6172584  46.8687584
  29.7072584  30.8332584  47.4157584  30.6772584  31.6642584  46.6017584
  31.3052584  30.2602584  44.3547584  31.9502584  30.8832584  44.6887584
  31.6302584  30.0192584  43.4877584  32.5162584  24.9542584  44.3497584
  32.6232584  24.2982584  43.6607584  31.6822584  24.7322584  44.7647584
  26.9062584  29.9742584  48.2107584  26.3112584  29.3062584  47.8697584
  27.7042584  29.4942584  48.4297584  32.7092584  10.5752584  42.8937584
  31.8902584  11.0682584  42.8487584  32.4722584   9.7532584  43.3227584
  35.0312584  24.9122584  45.5807584  34.3582584  24.8792584  44.9007584
  35.4202584  25.7832584  45.4917584  31.8212584  38.1472584  43.8847584
  30.8742584  38.0342584  43.9607584  32.1752584  37.7382584  44.6747584
  31.3482584  36.9032584  49.2907584  32.1802584  36.4302584  49.3057584
  30.7172584  36.2902584  49.6677584  34.8232584  36.7772584  48.2057584
  34.7602584  35.8252584  48.1247584  34.7482584  36.9422584  49.1457584
  35.8362584  31.8512584  42.7517584  36.7402584  32.1562584  42.8197584
  35.4232584  32.4582584  42.1377584  22.6542584  31.8962584  43.6557584
  23.1372584  31.7142584  42.8497584  22.5592584  31.0412584  44.0757584
  32.3602584  33.5932584  42.4307584  31.4492584  33.3022584  42.4467584
  32.5812584  33.6392584  41.5007584  28.3472584  35.6002584  47.1677584
  28.6122584  35.3732584  46.2767584  28.7292584  36.4642584  47.3197584
  35.8852584  27.6352584  44.4817584  36.7532584  27.2572584  44.3367584
  35.3552584  27.3022584  43.7577584  34.5132584  27.3242584  42.1617584
  35.0062584  27.6092584  41.3917584  34.5402584  26.3682584  42.1237584
   7.3642584  34.3062584  44.2617584   7.7962584  33.7642584  43.6007584
   8.0372584  34.9272584  44.5397584  29.1002584  28.6992584  48.9057584
  28.9852584  27.7552584  49.0087584  29.6052584  28.7932584  48.0987584
  34.5502584   9.6142584  46.8867584  34.8242584  10.0972584  46.1067584
  35.2072584   8.9252584  46.9857584  36.6982584  18.0432584  44.5587584
  36.4302584  17.8752584  43.6557584  37.5322584  17.5832584  44.6517584
   7.3222584   8.7132584  46.7637584   7.3272584   8.6412584  45.8087584
   7.8672584   7.9852584  47.0617584  24.9962584   9.9322584  42.6347584
  25.0112584   9.7422584  43.5727584  25.1892584   9.0922584  42.2167584
  28.4782584  29.8752584  43.8227584  29.3842584  30.0362584  44.0857584
  28.1222584  30.7452584  43.6457584   7.7442584  31.4672584  49.0057584
   7.3792584  31.8722584  48.2197584   7.0502584  31.5452584  49.6607584
  33.2722584  37.0902584  45.9467584  33.7112584  37.3802584  46.7467584
  33.7242584  36.2812584  45.7057584  29.1922584  35.9812584  41.6377584
  30.1172584  36.0462584  41.4007584  28.9212584  35.1232584  41.3107584
  24.8062584  29.1792584  43.8437584  24.6082584  28.3282584  43.4517584
  24.9662584  29.7552584  43.0967584  10.9892584  11.0742584  42.1557584
  10.3522584  11.5322584  41.6067584  10.4622584  10.4882584  42.6977584
  33.3512584  34.8382584  44.5287584  32.8602584  35.6472584  44.6717584
  33.0032584  34.4892584  43.7087584   9.8972584  29.5952584  41.1547584
   9.0562584  30.0532584  41.1637584  10.0832584  29.4552584  40.2257584
  30.7862584  28.8802584  46.7227584  31.6482584  28.4812584  46.8417584
  30.8172584  29.2642584  45.8467584  29.5092584   9.0372584  40.6397584
  30.0422584   8.7602584  41.3847584  30.1452584   9.2512584  39.9567584
   8.0622584  14.6512584  41.5247584   8.3912584  15.1052584  40.7487584
   8.8062584  14.6322584  42.1257584  28.4812584  43.6972584  10.5507584
  27.7342584  43.3882584  11.0637584  28.1132584  44.3602584   9.9667584
  28.3182584  39.5832584   2.3547584  28.1582584  38.7342584   1.9427584
  28.8282584  40.0722584   1.7087584  13.0722584  45.4032584 -10.6792416
  12.6072584  44.6062584 -10.9322416  13.0962584  45.9302584 -11.4782416
  16.2572584  47.1162584  -1.5542416  15.6512584  46.6832584  -0.9522416
  16.5872584  46.4102584  -2.1102416   9.7262584  45.5972584   9.4667584
  10.4672584  46.0092584   9.9127584  10.0562584  45.3942584   8.5917584
  35.2302584  43.9972584 -13.8312416  34.2902584  44.1172584 -13.9672416
  35.4092584  43.1132584 -14.1502416  25.6252584  43.2912584   5.6657584
  25.3082584  42.9482584   6.5007584  25.5652584  42.5502584   5.0627584
   8.7822584  46.3022584 -14.2422416   9.1062584  45.5142584 -14.6772416
   9.5682584  46.7282584 -13.8992416  11.5712584  40.1292584  -2.7422416
  10.6402584  40.2662584  -2.9162416  11.9612584  40.0052584  -3.6072416
  18.2122584  40.6152584  -1.2342416  17.9502584  41.5362584  -1.2412416
  18.8852584  40.5622584  -0.5562416  22.3482584  39.1142584 -10.5082416
  21.9582584  39.8622584 -10.9602416  22.2832584  38.3942584 -11.1352416
  15.5472584  44.8182584 -15.8782416  16.2112584  45.3402584 -16.3282416
  15.1812584  45.4112584 -15.2212416  16.2792584  41.2412584  -7.0792416
  16.4592584  41.6972584  -7.9012416  16.9662584  41.5402584  -6.4822416
  29.6482584  42.0392584 -16.7162416  28.8752584  42.0092584 -17.2802416
  29.9912584  42.9262584 -16.8272416  14.4012584  46.6372584  10.4717584
  14.5532584  47.1762584  11.2477584  15.2582584  46.5752584  10.0507584
  11.8802584  42.0452584  -7.0332416  11.0272584  42.3842584  -7.3072416
  12.4242584  42.8252584  -6.9262416  22.7642584  42.9362584   3.8277584
  23.3162584  43.5772584   3.3797584  22.4602584  42.3532584   3.1327584
  19.1352584  43.3652584  -0.9492416  20.0042584  43.7512584  -1.0562416
  18.9592584  43.4262584  -0.0102416  16.5842584  44.4322584  -5.8202416
  15.6612584  44.2552584  -5.6392416  16.7382584  44.0442584  -6.6812416
  19.9202584  43.1762584  -6.3452416  20.7492584  42.7102584  -6.4572416
  19.5632584  42.8352584  -5.5242416  18.4712584  47.0862584 -10.0302416
  18.5342584  46.3772584  -9.3892416  17.8662584  47.7132584  -9.6362416
  13.2002584  39.3142584 -14.9172416  14.0492584  38.9052584 -15.0862416
  13.3542584  40.2492584 -15.0492416  19.3842584  41.4612584 -12.7312416
  19.7762584  41.9412584 -12.0012416  20.0192584  40.7742584 -12.9362416
  10.9862584  44.3632584  -0.8342416  11.7292584  43.8282584  -1.1122416
  10.2352584  43.9882584  -1.2952416  14.4582584  43.9212584  -8.6102416
  13.8432584  44.4992584  -9.0622416  14.8342584  43.3802584  -9.3042416
  11.6832584  42.7492584 -10.7692416  11.0122584  42.1112584 -10.5292416
  11.9452584  42.5012584 -11.6552416  19.8092584  41.1762584 -16.7342416
  19.4412584  41.5462584 -17.5362416  20.4682584  41.8132584 -16.4562416
  22.8322584  45.0462584 -10.3932416  22.8132584  45.0462584  -9.4362416
  23.7342584  45.2802584 -10.6142416   8.7692584  40.2712584  -7.0012416
   8.8632584  39.8322584  -7.8462416   8.9742584  41.1882584  -7.1822416
  17.3362584  46.9782584 -16.4342416  17.9932584  47.0392584 -17.1272416
  17.7872584  47.2872584 -15.6482416  17.1662584  40.0552584 -10.2142416
  18.0792584  40.2182584 -10.4512416  17.2092584  39.6892584  -9.3312416
  11.6632584  45.4252584   1.7147584  11.5692584  45.1512584   0.8017584
  11.6532584  46.3812584   1.6807584  15.6952584  42.5722584 -10.7682416
  16.0562584  42.8882584 -11.5962416  16.1742584  41.7622584 -10.5912416
  11.3652584  46.4742584 -12.8222416  10.7932584  46.7652584 -12.1122416
  11.5162584  47.2602584 -13.3472416  16.9652584  41.3182584 -13.7392416
  17.8142584  41.1692584 -13.3212416  16.9932584  40.7892584 -14.5362416
  20.1852584  44.5132584   1.5247584  20.4602584  45.4272584   1.4537584
  20.6482584  44.1832584   2.2947584  22.2002584  45.5512584   8.6677584
  22.4252584  45.4762584   9.5947584  21.3432584  45.1312584   8.5937584
  36.2642584  40.8022584  -5.8002416  36.3832584  41.1572584  -4.9192416
  37.1532584  40.6612584  -6.1252416   9.6632584  40.7032584  -9.8942416
   9.1142584  41.4412584 -10.1612416   9.0752584  39.9482584  -9.9132416
  15.2132584  39.4852584  -5.3172416  15.3802584  40.2382584  -5.8842416
  15.7782584  39.6282584  -4.5562416  26.1842584  46.7812584 -13.4112416
  27.1022584  46.8122584 -13.1402416  26.0382584  45.8692584 -13.6602416
  20.6372584  38.9982584 -14.2552416  21.4542584  38.9772584 -13.7582416
  20.9112584  38.9442584 -15.1712416  21.9252584  43.4642584 -12.6442416
  22.4812584  42.6882584 -12.7132416  22.4612584  44.1032584 -12.1742416
  11.6252584  38.4042584 -10.2282416  12.1472584  38.7632584  -9.5112416
  10.9012584  39.0222584 -10.3312416  35.9952584  45.1862584  -4.2632416
  35.7882584  44.7742584  -5.1012416  35.1712584  45.5852584  -3.9822416
   9.3872584  40.8672584  -4.3602416   9.1792584  40.4492584  -5.1962416
   9.9522584  41.6042584  -4.5952416  27.5472584  39.6262584  -4.9862416
  28.4382584  39.4992584  -5.3122416  27.5212584  40.5432584  -4.7112416
  13.1542584  39.7302584  -8.5412416  13.9022584  40.3252584  -8.4972416
  12.3952584  40.2842584  -8.3572416  25.1572584  43.2122584 -19.0462416
  24.2452584  43.4802584 -18.9302416  25.3912584  42.7932584 -18.2172416
  13.5752584  42.3122584 -13.1022416  14.0172584  42.5952584 -12.3022416
  13.9702584  42.8422584 -13.7952416  17.7262584  43.2712584  -8.2952416
  17.6402584  43.9422584  -8.9732416  18.5732584  43.4492584  -7.8872416
  25.0502584  44.2312584 -13.0602416  25.9672584  44.0462584 -13.2622416
  24.5612584  43.8412584 -13.7842416  32.0142584  45.8642584 -10.7702416
  32.1242584  45.1652584 -11.4152416  32.6922584  46.5022584 -10.9902416
  23.6002584  42.0632584  -0.3322416  24.3032584  42.7132584  -0.3352416
  23.3902584  41.9412584   0.5937584  18.8382584  46.5612584   4.2267584
  19.1132584  45.9282584   4.8907584  19.1242584  47.4072584   4.5707584
  20.6812584  46.7942584  -1.5982416  19.7652584  46.9072584  -1.3422416
  20.9112584  47.6142584  -2.0352416  12.5692584  44.2852584 -14.8402416
  13.1312584  45.0272584 -15.0632416  12.3202584  44.4382584 -13.9282416
  24.2522584  42.7252584 -15.6862416  24.5162584  41.8622584 -15.3672416
  23.5262584  42.5472584 -16.2852416  16.4932584  43.1832584  -2.7012416
  15.6712584  43.2002584  -3.1912416  16.2242584  43.1442584  -1.7832416
  36.0242584  45.7062584 -17.0922416  36.0632584  45.4122584 -16.1822416
  36.7332584  45.2312584 -17.5272416  20.0252584  44.5302584   6.4757584
  19.4152584  45.2342584   6.6937584  19.4832584  43.8662584   6.0497584
  25.0302584  44.2352584  -1.0282416  25.9332584  44.0542584  -1.2912416
  24.9792584  45.1902584  -0.9852416  12.8572584  46.6092584  -1.1282416
  13.4562584  46.3132584  -0.4422416  12.3822584  45.8202584  -1.3882416
  13.1042584  44.6982584   3.7957584  13.0572584  43.7422584   3.7807584
  12.4512584  44.9812584   3.1567584  19.2732584  40.7222584   6.2747584
  19.0882584  40.7762584   7.2117584  18.8682584  41.5062584   5.9037584
  27.3092584  42.2712584  -4.3532416  27.8012584  42.9352584  -4.8362416
  26.4572584  42.2402584  -4.7882416  12.8892584  44.9952584   8.5847584
  13.4662584  45.2182584   7.8547584  13.4232584  45.1412584   9.3657584
  17.3132584  40.1972584 -15.9682416  16.7632584  40.2682584 -16.7492416
  18.1672584  40.5282584 -16.2462416  14.3482584  45.5742584   6.1607584
  13.8672584  45.4602584   5.3417584  14.4672584  46.5202584   6.2397584
  31.9612584  44.5042584  -2.2342416  31.0222584  44.4642584  -2.4162416
  32.3752584  44.1752584  -3.0322416  18.6162584  39.8482584   2.9837584
  18.9912584  39.7292584   3.8567584  19.3662584  40.0542584   2.4257584
  11.5672584  40.4692584   3.2117584  12.2382584  41.0212584   3.6147584
  10.9472584  41.0882584   2.8277584   8.9682584  39.0602584   9.5557584
   9.7682584  39.5062584   9.8337584   8.3012584  39.7472584   9.5477584
  18.0052584  42.9442584   5.3257584  17.1062584  43.0072584   5.6487584
  17.9152584  42.8982584   4.3737584  14.6042584  46.6812584   3.1587584
  14.1972584  45.8232584   3.2767584  14.0912584  47.0972584   2.4657584
  13.1522584  40.9202584  10.2717584  12.5962584  40.8482584  11.0467584
  12.6682584  40.4622584   9.5847584  36.1272584  38.3392584   7.9877584
  36.4972584  39.0832584   8.4627584  36.6522584  38.2782584   7.1897584
  26.0202584  41.9652584   2.9697584  26.0522584  41.0512584   3.2537584
  26.5302584  41.9822584   2.1597584  21.8512584  40.0782584   4.9477584
  22.4922584  39.9852584   5.6527584  21.0842584  40.4642584   5.3707584
  14.4042584  46.4402584 -13.9942416  13.8352584  47.1922584 -13.8292416
  15.1622584  46.5832584 -13.4282416  37.3092584  46.5992584  -7.9582416
  37.3862584  45.6852584  -8.2332416  36.4872584  46.8982584  -8.3462416
  14.1022584  43.0042584  -3.9092416  13.6202584  43.5562584  -4.5242416
  13.4752584  42.8192584  -3.2102416  22.4442584  46.7132584   5.9527584
  21.7302584  46.0802584   6.0237584  22.9152584  46.6382584   6.7827584
  22.6362584  38.5952584  -6.1512416  23.3012584  37.9452584  -5.9222416
  22.7812584  39.3142584  -5.5372416  12.3082584  42.4402584   7.4927584
  11.3802584  42.5752584   7.3017584  12.5422584  43.1642584   8.0727584
  28.7352584  40.7132584   4.9257584  28.3882584  40.5502584   4.0487584
  28.6362584  39.8782584   5.3827584  10.7502584  45.6252584   6.6637584
  11.5502584  45.1062584   6.7477584  10.6042584  45.6892584   5.7197584
  35.6262584  39.7512584  -1.6082416  35.5692584  38.8272584  -1.3642416
  35.5722584  40.2222584  -0.7762416  23.0272584  41.7452584 -17.8872416
  23.5862584  40.9692584 -17.9252416  22.6822584  41.8362584 -18.7752416
   8.0682584  41.8522584   4.5797584   7.7492584  40.9752584   4.3687584
   8.8312584  41.9732584   4.0137584  17.7122584  45.6122584  -3.4532416
  17.7372584  44.7582584  -3.0212416  17.3342584  45.4342584  -4.3142416
  22.7512584  42.6232584   6.7347584  22.0562584  43.2812584   6.7457584
  22.9842584  42.5352584   5.8107584  16.5712584  46.5182584   8.8767584
  15.9952584  46.6112584   8.1177584  17.3802584  46.9602584   8.6197584
  15.1402584  45.5312584   0.3557584  15.1172584  44.5752584   0.3287584
  15.9802584  45.7402584   0.7657584   8.3152584  44.4882584  -9.7392416
   7.8422584  44.7552584 -10.5272416   9.1142584  45.0152584  -9.7482416
   9.3612584  43.1112584  -7.2902416   8.8852584  43.4522584  -8.0472416
   9.0372584  43.6252584  -6.5512416  21.0532584  45.1732584 -16.9102416
  20.2612584  45.6362584 -17.1862416  20.7442584  44.5282584 -16.2742416
  20.2842584  43.5602584 -14.7162416  20.8762584  43.5512584 -13.9642416
  19.5912584  42.9422584 -14.4832416  16.3602584  43.8722584 -13.6322416
  16.0442584  44.1052584 -14.5052416  16.6122584  42.9522584 -13.7052416
  20.0492584  40.4862584  -9.7722416  20.8272584  39.9902584  -9.5162416
  19.8322584  41.0082584  -9.0002416  27.2792584  41.4662584 -17.9622416
  27.6262584  40.7822584 -18.5352416  26.4182584  41.1422584 -17.6972416
  35.3702584  40.8562584   0.7707584  34.5682584  40.6432584   1.2487584
  35.6222584  41.7202584   1.0957584   8.1852584  38.4292584   6.3567584
   8.9702584  38.5002584   5.8137584   8.4352584  38.8232584   7.1927584
  17.6262584  39.8782584  -3.6582416  17.7922584  39.9062584  -2.7152416
  17.9012584  40.7382584  -3.9752416  33.5312584  46.9552584  -4.6732416
  33.1252584  47.8222584  -4.6532416  32.7932584  46.3452584  -4.6802416
  20.8372584  38.8772584 -17.5332416  20.0562584  38.6542584 -18.0392416
  20.8422584  39.8342584 -17.5072416  10.3672584  39.0172584 -14.8062416
  11.3222584  39.0842584 -14.8122416  10.0712584  39.8422584 -14.4222416
  20.1442584  39.7392584  -6.8452416  20.7672584  39.0392584  -6.6482416
  19.3002584  39.3982584  -6.5502416  14.3932584  40.6192584   0.4167584
  14.9452584  39.8532584   0.2597584  13.6422584  40.2782584   0.9037584
  34.5462584  38.7442584  -6.5472416  34.7032584  38.1072584  -5.8502416
  35.1302584  39.4742584  -6.3412416  15.5512584  42.6122584 -17.5202416
  15.6422584  43.2552584 -16.8172416  14.7302584  42.1582584 -17.3262416
  10.6342584  44.6152584 -17.4752416  11.1962584  45.2822584 -17.8702416
  11.1692584  44.2332584 -16.7792416   7.3302584  41.9932584 -13.5432416
   7.1852584  41.0792584 -13.7852416   7.2662584  42.0012584 -12.5882416
  27.0972584  38.7252584   6.9347584  26.5002584  38.4872584   7.6437584
  27.4892584  39.5512584   7.2177584  15.8892584  43.3702584   6.8387584
  15.7592584  43.2692584   7.7817584  15.1602584  43.9212584   6.5527584
  12.2482584  39.4342584   8.2367584  12.4302584  40.2432584   7.7597584
  12.1172584  38.7772584   7.5527584  15.6532584  40.9882584   5.5487584
  15.2852584  40.2462584   6.0277584  15.6622584  41.7032584   6.1847584
  33.9642584  42.0992584   3.3467584  33.9662584  41.2712584   3.8267584
  34.5482584  42.6682584   3.8467584  17.1122584  41.9882584   2.4437584
  16.3082584  41.8952584   2.9547584  17.7022584  41.3242584   2.7997584
  18.0382584  40.6252584   8.7487584  17.1582584  40.4262584   8.4287584
  17.9142584  40.8442584   9.6717584  23.0722584  40.5382584   2.3187584
  22.7082584  40.3902584   3.1917584  23.9762584  40.2302584   2.3807584
  21.7282584  41.7912584   9.3567584  21.3652584  40.9222584   9.1807584
  22.2472584  41.9952584   8.5787584  20.2582584  39.9882584   0.6197584
  21.1582584  40.0382584   0.9427584  20.1332584  39.0652584   0.3997584
  15.4462584  39.7012584   8.7627584  14.7892584  39.8422584   9.4447584
  15.3822584  38.7672584   8.5587584  25.6802584  46.4622584 -17.7732416
  26.3932584  46.8162584 -17.2422416  25.2442584  47.2342584 -18.1352416
  32.2872584  41.4472584   6.0237584  31.9532584  41.1282584   5.1857584
  32.8302584  40.7312584   6.3537584  16.2792584  39.6102584 -18.2052416
  15.5952584  38.9402584 -18.2292416  15.8662584  40.3882584 -18.5782416
  12.6952584  38.6102584   1.5167584  12.3452584  39.2372584   2.1497584
  12.5572584  37.7552584   1.9257584  21.8642584  46.2302584 -14.0252416
  22.5562584  46.1092584 -14.6752416  21.5932584  45.3412584 -13.7962416
  19.4362584  44.7802584 -11.5032416  20.2572584  44.3532584 -11.7462416
  18.7702584  44.3362584 -12.0282416  17.9672584  44.6452584  10.5857584
  18.3142584  45.3232584  11.1647584  17.3472584  45.1062584  10.0197584
  26.5702584  45.9802584  -6.5882416  26.7572584  46.4132584  -7.4212416
  26.1732584  46.6622584  -6.0462416  34.6722584  42.4282584  -8.7272416
  34.5302584  42.7282584  -9.6242416  34.9072584  41.5042584  -8.8162416
  31.0352584  46.3452584  -8.2472416  30.4582584  46.9192584  -8.7502416
  31.6962584  46.0582584  -8.8772416  31.3332584  39.7842584  -8.4382416
  30.4172584  39.9032584  -8.1882416  31.3032584  39.1762584  -9.1762416
   7.2542584  45.1622584  -1.7972416   7.9722584  45.7662584  -1.6082416
   6.9112584  45.4552584  -2.6412416  25.8162584  43.3242584  -6.8722416
  26.3862584  42.9172584  -7.5252416  26.1902584  44.1952584  -6.7362416
  34.9542584  41.2192584 -15.4312416  35.4092584  40.4522584 -15.7792416
  34.2342584  41.3692584 -16.0432416  23.0632584  45.4512584 -18.7202416
  22.3962584  45.2862584 -18.0532416  23.6502584  46.0912584 -18.3192416
  33.1332584  43.8702584  -4.6122416  33.3522584  44.2732584  -5.4522416
  32.9562584  42.9542584  -4.8242416  32.6442584  45.4042584 -13.8812416
  32.0792584  44.6412584 -14.0022416  32.9572584  45.6132584 -14.7622416
  23.9012584  45.4402584 -15.4942416  24.3902584  45.9492584 -16.1412416
  23.9782584  44.5342584 -15.7942416  12.8092584  42.3502584  -1.4182416
  13.3232584  41.8492584  -0.7862416  12.3032584  41.6902584  -1.8932416
  32.4902584  44.0512584   0.3587584  33.3652584  43.7162584   0.1627584
  32.1152584  44.2582584  -0.4972416  17.7012584  45.5692584   1.5337584
  18.5412584  45.2272584   1.2257584  17.8222584  45.6892584   2.4757584
  36.7262584  39.1342584 -16.0042416  37.3892584  39.1972584 -16.6912416
  36.3362584  38.2682584 -16.1262416   7.7522584  41.8712584 -17.2742416
   8.0972584  42.3762584 -18.0102416   6.8132584  41.8042584 -17.4482416
  25.2102584  45.4412584   7.8387584  24.5192584  44.9952584   8.3277584
  25.2932584  44.9392584   7.0277584  33.9362584  42.0482584  -1.5182416
  33.6592584  42.5172584  -2.3052416  33.2402584  41.4112584  -1.3602416
  27.0892584  46.2172584   9.8537584  26.6492584  45.9522584   9.0457584
  26.4672584  46.0032584  10.5477584  28.4602584  39.1902584 -10.7972416
  28.5932584  39.5342584  -9.9142416  27.7852584  38.5192584 -10.6932416
  31.3772584  42.8642584   9.8947584  31.1132584  43.4562584   9.1907584
  30.6282584  42.8522584  10.4917584  34.2142584  39.0492584   3.9757584
  33.3052584  38.8072584   3.7967584  34.6522584  38.2182584   4.1597584
  30.5562584  43.4792584  -7.5652416  30.9582584  44.3152584  -7.8032416
  31.2972584  42.8992584  -7.3872416  32.1692584  39.4632584   0.7327584
  31.8662584  39.8312584  -0.0972416  31.6692584  39.9322584   1.4007584
  33.5152584  45.9272584   4.5617584  33.4952584  45.1872584   5.1677584
  34.2982584  46.4192584   4.8097584   7.2242584  44.7692584 -12.0912416
   6.6462584  44.3282584 -12.7152416   7.9022584  45.1712584 -12.6352416
  12.6042584  40.0732584  -5.2792416  13.5462584  39.9802584  -5.4262416
  12.3132584  40.6792584  -5.9602416  19.2342584  42.2232584 -19.0712416
  18.6422584  42.9462584 -19.2782416  19.9092584  42.2642584 -19.7492416
  31.6532584  40.5212584  -1.8142416  31.8912584  40.6182584  -2.7362416
  31.1132584  39.7312584  -1.7872416  15.7432584  42.8332584   0.0477584
  16.3502584  42.5302584   0.7237584  15.0082584  42.2212584   0.0947584
  34.8672584  45.6642584   9.1127584  35.3862584  46.4382584   8.8927584
  34.7072584  45.2342584   8.2727584  28.4272584  40.1642584  -8.3302416
  28.2502584  40.1822584  -7.3902416  28.2912584  41.0672584  -8.6172416
  29.3102584  44.6582584  -2.9192416  28.7692584  45.2522584  -2.3992416
  28.8742584  44.6182584  -3.7702416  35.1882584  39.9782584 -10.0842416
  34.8622584  39.2082584  -9.6192416  34.7792584  39.9282584 -10.9482416
   9.8892584  42.5242584   2.4907584   9.4992584  42.0212584   1.7757584
  10.1932584  43.3322584   2.0757584  19.3332584  45.8902584  -7.1582416
  20.2732584  45.8652584  -7.3372416  19.1602584  45.0842584  -6.6722416
   9.1602584  46.6862584  -0.9532416  10.0112584  47.0902584  -0.7852416
   8.6022584  46.9962584  -0.2402416  34.6972584  44.3922584  -6.7042416
  34.8282584  43.5672584  -7.1722416  34.6262584  45.0512584  -7.3952416
  13.2592584  41.9392584 -16.0452416  12.9062584  42.8032584 -15.8312416
  12.5692584  41.5202584 -16.5602416  27.3562584  41.6832584 -12.2062416
  27.9822584  41.1172584 -11.7532416  26.6222584  41.7642584 -11.5982416
  29.3582584  46.2022584 -10.7452416  30.2722584  45.9182584 -10.7772416
  29.3212584  46.9582584 -11.3312416  34.3042584  46.3572584  -8.6212416
  33.8632584  47.0942584  -8.1982416  34.4792584  46.6622584  -9.5122416
  31.6242584  46.6672584 -19.2142416  32.1932584  47.2672584 -19.6962416
  32.1432584  46.4032584 -18.4542416  27.6392584  44.1592584 -13.4292416
  27.8832584  43.3732584 -12.9412416  28.4742584  44.5342584 -13.7122416
  22.2642584  41.5442584  -7.4072416  23.1242584  41.1362584  -7.5102416
  21.7702584  40.9302584  -6.8632416   8.4482584  45.2452584  -5.2172416
   7.5602584  45.1722584  -4.8702416   8.7412584  46.1152584  -4.9472416
  31.9812584  40.5492584 -13.4812416  31.3772584  39.8062584 -13.4682416
  32.8512584  40.1502584 -13.4762416  31.6982584  42.2202584 -11.0432416
  31.8592584  41.5602584 -11.7172416  32.5622584  42.3972584 -10.6692416
  28.6142584  44.3932584  -5.6542416  27.9382584  44.8882584  -6.1172416
  29.2322584  44.1342584  -6.3382416  34.4312584  43.4042584 -11.3192416
  34.5842584  44.3252584 -11.1062416  34.7542584  43.3092584 -12.2152416
  30.4522584  38.9032584  -5.1552416  30.8972584  38.1962584  -5.6222416
  31.1422584  39.5392584  -4.9682416  23.4552584  44.0972584  -7.5752416
  24.3492584  43.7872584  -7.4352416  22.9202584  43.3042584  -7.5542416
  32.4542584  40.9562584  -4.2302416  33.3532584  40.6322584  -4.1662416
  32.3062584  41.0692584  -5.1692416  30.2142584  46.8682584 -15.8752416
  30.4082584  47.8042584 -15.9302416  30.6312584  46.5842584 -15.0612416
  25.5902584  40.2012584 -14.8732416  25.3652584  39.4662584 -14.3032416
  26.5462584  40.2412584 -14.8462416  27.1032584  46.8012584  -9.3142416
  27.1032584  47.6852584  -9.6812416  27.8072584  46.3492584  -9.7772416
  25.7382584  44.6692584 -10.4342416  25.8802584  44.7392584 -11.3782416
  26.0522584  45.5012584 -10.0812416  24.7762584  40.5512584  -7.6812416
  24.7292584  40.3592584  -6.7442416  24.6352584  39.7062584  -8.1062416
  30.2812584  44.4792584 -17.0942416  30.3112584  45.3972584 -16.8252416
  29.7702584  44.4822584 -17.9032416  30.2862584  43.0152584   7.2367584
  30.9862584  42.5872584   6.7447584  29.6492584  43.2752584   6.5717584
  37.1932584  41.7462584 -10.6452416  36.4812584  41.1212584 -10.5082416
  36.8172584  42.5942584 -10.4112416  15.1162584  39.3632584 -12.3192416
  15.5792584  39.8382584 -11.6292416  14.8052584  40.0462584 -12.9132416
  33.2562584  44.6362584 -16.5072416  33.9692584  44.9102584 -17.0842416
  32.6692584  44.1352584 -17.0732416  35.5592584  43.9012584  -0.0792416
  35.9972584  44.4272584  -0.7482416  35.2532584  43.1242584  -0.5472416
  20.8992584  39.2422584   9.4137584  20.0022584  39.1092584   9.7187584
  21.4382584  39.1262584  10.1967584  28.1352584  42.8182584  -1.6252416
  27.7752584  42.3402584  -2.3722416  28.7172584  43.4702584  -2.0162416
  31.3062584  40.1692584   8.7347584  31.9742584  39.8642584   8.1207584
  31.5992584  41.0432584   8.9927584   7.8762584  42.9152584   7.1997584
   8.0152584  42.7692584   6.2647584   8.0702584  43.8432584   7.3297584
  28.3872584  43.4342584   5.0277584  27.5432584  43.6982584   5.3927584
  28.4492584  42.4982584   5.2177584  33.7372584  44.0132584   6.5587584
  33.0142584  43.4002584   6.4257584  34.5162584  43.5282584   6.2857584
   9.8422584  45.5062584   3.9497584  10.1092584  46.3182584   3.5177584
   9.2972584  45.0582584   3.3017584  34.2022584  46.1882584   1.5297584
  34.3572584  46.0012584   2.4557584  33.3682584  45.7592584   1.3357584
  29.3802584  45.7832584   3.8537584  29.8262584  45.6642584   3.0157584
  29.1782584  44.8942584   4.1467584   8.9072584  43.1822584 -15.1532416
   8.5862584  42.7652584 -15.9532416   8.2792584  42.9232584 -14.4792416
  35.0822584  41.3732584 -18.5912416  34.3322584  40.8002584 -18.4302416
  34.7642584  42.2502584 -18.3802416  24.7822584  44.3792584   2.4847584
  25.1202584  43.4852584   2.5347584  25.4332584  44.8542584   1.9677584
  25.8262584  42.2272584   8.3187584  26.6392584  41.7292584   8.2337584
  25.7792584  42.4542584   9.2477584  27.2612584  45.0362584   1.2967584
  27.6042584  44.1742584   1.0617584  28.0402584  45.5712584   1.4487584
  36.6072584  41.6002584  -3.3082416  36.4302584  40.8192584  -2.7832416
  36.1002584  42.2932584  -2.8842416  25.0732584  46.0592584   4.7417584
  24.9512584  45.1102584   4.7117584  24.2092584  46.4052584   4.9677584
  37.0432584  41.0282584   9.3277584  36.5052584  41.3582584  10.0467584
  36.9132584  41.6602584   8.6207584  31.1942584  43.1412584 -14.3092416
  31.0782584  42.9572584 -15.2412416  31.4412584  42.2992584 -13.9272416
  35.8912584  43.4152584   4.5927584  36.4222584  44.0992584   5.0017584
  36.4642584  42.6492584   4.5677584   9.7102584  42.2252584   9.6137584
   9.5332584  43.1642584   9.6567584   9.1982584  41.9172584   8.8657584
  30.2902584  45.5282584   1.3517584  30.7652584  46.2242584   0.8977584
  30.7762584  44.7302584   1.1417584   7.3142584  45.6082584   5.6557584
   8.1942584  45.7422584   5.3017584   6.8712584  46.4462584   5.5207584
  28.4762584  42.6472584  -9.1432416  29.3642584  42.8652584  -8.8602416
  28.1502584  43.4512584  -9.5492416  13.2452584  44.4732584  -6.3902416
  13.9552584  44.3602584  -7.0222416  13.1732584  45.4202584  -6.2762416
  31.3072584  42.1502584   1.7427584  31.7812584  42.9102584   1.4037584
  31.7352584  41.9532584   2.5757584  20.9352584  44.8872584  -3.7412416
  21.4382584  45.2822584  -4.4532416  20.6212584  45.6322584  -3.2282416
  24.4092584  40.6762584  -5.1172416  24.6502584  40.1182584  -4.3772416
  24.1892584  41.5192584  -4.7202416  13.3692584  42.0802584   4.4807584
  14.2252584  41.8682584   4.8537584  12.8202584  42.2792584   5.2387584
  34.6672584  46.7302584 -12.0032416  34.2722584  47.4902584 -12.4312416
  34.6462584  46.0432584 -12.6692416  11.8322584  46.6402584 -19.0192416
  11.7432584  47.5762584 -18.8402416  12.7732584  46.4742584 -18.9642416
  10.7722584  43.7282584  -4.6572416  11.4802584  44.1812584  -5.1162416
  10.0402584  44.3452584  -4.6762416  21.5612584  47.0292584   1.1107584
  21.6202584  47.9812584   1.1877584  21.5912584  46.8622584   0.1687584
   8.9032584  42.9932584  -2.0182416   8.4612584  42.5472584  -2.7412416
   8.2742584  43.6512584  -1.7222416  10.9792584  41.5732584 -13.8392416
  11.9332584  41.6502584 -13.8062416  10.6962584  42.3182584 -14.3692416
  26.7472584  38.4932584  -2.1432416  27.0452584  38.7832584  -3.0052416
  25.8732584  38.8712584  -2.0512416  23.4302584  41.0272584 -12.3442416
  23.6912584  40.1512584 -12.6272416  24.2502584  41.4542584 -12.0982416
  25.0482584  42.0832584 -10.5572416  25.2152584  43.0132584 -10.4012416
  24.8882584  41.7182584  -9.6872416  28.8922584  38.4462584   0.0257584
  29.5042584  38.2322584  -0.6792416  28.1492584  38.8552584  -0.4182416
  28.3072584  40.5452584 -14.6412416  28.3042584  41.0942584 -13.8562416
  28.7542584  41.0742584 -15.3022416  32.4222584  41.6812584  -6.9702416
  32.0492584  41.0742584  -7.6092416  33.2782584  41.9132584  -7.3302416
  32.7092584  40.5752584 -17.1062416  31.8902584  41.0682584 -17.1512416
  32.4722584  39.7532584 -16.6772416  18.9882584  42.6152584  -3.9142416
  18.2512584  42.8212584  -3.3382416  19.6902584  43.1962584  -3.6222416
  23.2402584  42.9982584  -3.6092416  23.2742584  42.9442584  -2.6542416
  22.6462584  43.7282584  -3.7862416  34.5502584  39.6142584 -13.1132416
  34.8242584  40.0972584 -13.8932416  35.2072584  38.9252584 -13.0142416
   7.3222584  38.7132584 -13.2362416   7.3272584  38.6412584 -14.1912416
   7.8672584  37.9852584 -12.9382416  24.9962584  39.9322584 -17.3652416
  25.0112584  39.7422584 -16.4272416  25.1892584  39.0922584 -17.7832416
  15.0392584  43.0882584   9.4507584  15.4142584  43.1732584  10.3267584
  14.5562584  42.2622584   9.4747584  28.2852584  41.2812584   8.3377584
  28.8222584  40.7002584   8.8767584  28.8992584  41.9372584   8.0067584
  36.9322584  39.6842584   3.3467584  37.1652584  39.0322584   2.6857584
  35.9902584  39.5692584   3.4757584  33.8212584  43.6032584  10.7757584
  32.9972584  43.2062584  10.4937584  33.8162584  44.4732584  10.3767584
  33.3102584  39.1112584   7.1587584  33.0802584  38.5222584   6.4407584
  34.1032584  38.7312584   7.5367584  10.9892584  41.0742584 -17.8442416
  10.3522584  41.5322584 -18.3932416  10.4622584  40.4882584 -17.3022416
  27.9312584  42.3362584   0.8667584  28.0562584  42.3862584  -0.0802416
  28.8022584  42.4872584   1.2327584  24.0292584  39.6442584   7.7097584
  24.6692584  39.0292584   8.0697584  24.3162584  40.5012584   8.0247584
  31.1512584  40.1012584   3.9817584  30.2772584  40.3802584   4.2567584
  31.1942584  39.1752584   4.2207584  36.5512584  44.9002584   2.3617584
  36.1622584  44.6052584   1.5387584  36.2192584  44.2872584   3.0177584
  29.5092584  39.0372584 -19.3602416  30.0422584  38.7602584 -18.6152416
  30.1452584  39.2512584 -20.0432416   9.2572584  40.8762584   0.2597584
   9.2292584  41.5352584  -0.4342416   8.5852584  40.2402584   0.0147584
   8.0622584  44.6512584 -18.4752416   8.3912584  45.1052584 -19.2512416
   8.8062584  44.6322584 -17.8742416  28.4812584  43.6972584  40.5507584
  27.7342584  43.3882584  41.0637584  28.1132584  44.3602584  39.9667584
  28.3182584  39.5832584  32.3547584  28.1582584  38.7342584  31.9427584
  28.8282584  40.0722584  31.7087584  13.0722584  45.4032584  19.3207584
  12.6072584  44.6062584  19.0677584  13.0962584  45.9302584  18.5217584
  16.2572584  47.1162584  28.4457584  15.6512584  46.6832584  29.0477584
  16.5872584  46.4102584  27.8897584   9.7262584  45.5972584  39.4667584
  10.4672584  46.0092584  39.9127584  10.0562584  45.3942584  38.5917584
  35.2302584  43.9972584  16.1687584  34.2902584  44.1172584  16.0327584
  35.4092584  43.1132584  15.8497584  25.6252584  43.2912584  35.6657584
  25.3082584  42.9482584  36.5007584  25.5652584  42.5502584  35.0627584
   8.7822584  46.3022584  15.7577584   9.1062584  45.5142584  15.3227584
   9.5682584  46.7282584  16.1007584  11.5712584  40.1292584  27.2577584
  10.6402584  40.2662584  27.0837584  11.9612584  40.0052584  26.3927584
  18.2122584  40.6152584  28.7657584  17.9502584  41.5362584  28.7587584
  18.8852584  40.5622584  29.4437584  15.5472584  44.8182584  14.1217584
  16.2112584  45.3402584  13.6717584  15.1812584  45.4112584  14.7787584
  16.2792584  41.2412584  22.9207584  16.4592584  41.6972584  22.0987584
  16.9662584  41.5402584  23.5177584  29.6482584  42.0392584  13.2837584
  28.8752584  42.0092584  12.7197584  29.9912584  42.9262584  13.1727584
  14.4012584  46.6372584  40.4717584  14.5532584  47.1762584  41.2477584
  15.2582584  46.5752584  40.0507584  11.8802584  42.0452584  22.9667584
  11.0272584  42.3842584  22.6927584  12.4242584  42.8252584  23.0737584
  22.7642584  42.9362584  33.8277584  23.3162584  43.5772584  33.3797584
  22.4602584  42.3532584  33.1327584  19.1352584  43.3652584  29.0507584
  20.0042584  43.7512584  28.9437584  18.9592584  43.4262584  29.9897584
  16.5842584  44.4322584  24.1797584  15.6612584  44.2552584  24.3607584
  16.7382584  44.0442584  23.3187584  19.9202584  43.1762584  23.6547584
  20.7492584  42.7102584  23.5427584  19.5632584  42.8352584  24.4757584
  18.4712584  47.0862584  19.9697584  18.5342584  46.3772584  20.6107584
  17.8662584  47.7132584  20.3637584  13.2002584  39.3142584  15.0827584
  14.0492584  38.9052584  14.9137584  13.3542584  40.2492584  14.9507584
  19.3842584  41.4612584  17.2687584  19.7762584  41.9412584  17.9987584
  20.0192584  40.7742584  17.0637584  10.9862584  44.3632584  29.1657584
  11.7292584  43.8282584  28.8877584  10.2352584  43.9882584  28.7047584
  14.4582584  43.9212584  21.3897584  13.8432584  44.4992584  20.9377584
  14.8342584  43.3802584  20.6957584  11.6832584  42.7492584  19.2307584
  11.0122584  42.1112584  19.4707584  11.9452584  42.5012584  18.3447584
  19.8092584  41.1762584  13.2657584  19.4412584  41.5462584  12.4637584
  20.4682584  41.8132584  13.5437584  22.8322584  45.0462584  19.6067584
  22.8132584  45.0462584  20.5637584  23.7342584  45.2802584  19.3857584
   8.7692584  40.2712584  22.9987584   8.8632584  39.8322584  22.1537584
   8.9742584  41.1882584  22.8177584  17.3362584  46.9782584  13.5657584
  17.9932584  47.0392584  12.8727584  17.7872584  47.2872584  14.3517584
  17.1662584  40.0552584  19.7857584  18.0792584  40.2182584  19.5487584
  17.2092584  39.6892584  20.6687584  11.6632584  45.4252584  31.7147584
  11.5692584  45.1512584  30.8017584  11.6532584  46.3812584  31.6807584
  24.5272584  39.7492584  27.9917584  24.3392584  40.5992584  28.3897584
  23.7852584  39.1982584  28.2397584  15.6952584  42.5722584  19.2317584
  16.0562584  42.8882584  18.4037584  16.1742584  41.7622584  19.4087584
  11.3652584  46.4742584  17.1777584  10.7932584  46.7652584  17.8877584
  11.5162584  47.2602584  16.6527584  16.9652584  41.3182584  16.2607584
  17.8142584  41.1692584  16.6787584  16.9932584  40.7892584  15.4637584
  20.1852584  44.5132584  31.5247584  20.4602584  45.4272584  31.4537584
  20.6482584  44.1832584  32.2947584  22.2002584  45.5512584  38.6677584
  22.4252584  45.4762584  39.5947584  21.3432584  45.1312584  38.5937584
  36.2642584  40.8022584  24.1997584  36.3832584  41.1572584  25.0807584
  37.1532584  40.6612584  23.8747584   9.6632584  40.7032584  20.1057584
   9.1142584  41.4412584  19.8387584   9.0752584  39.9482584  20.0867584
  15.2132584  39.4852584  24.6827584  15.3802584  40.2382584  24.1157584
  15.7782584  39.6282584  25.4437584  26.1842584  46.7812584  16.5887584
  27.1022584  46.8122584  16.8597584  26.0382584  45.8692584  16.3397584
  20.6372584  38.9982584  15.7447584  21.4542584  38.9772584  16.2417584
  20.9112584  38.9442584  14.8287584  21.9252584  43.4642584  17.3557584
  22.4812584  42.6882584  17.2867584  22.4612584  44.1032584  17.8257584
  11.6252584  38.4042584  19.7717584  12.1472584  38.7632584  20.4887584
  10.9012584  39.0222584  19.6687584  35.9952584  45.1862584  25.7367584
  35.7882584  44.7742584  24.8987584  35.1712584  45.5852584  26.0177584
   9.3872584  40.8672584  25.6397584   9.1792584  40.4492584  24.8037584
   9.9522584  41.6042584  25.4047584  27.5472584  39.6262584  25.0137584
  28.4382584  39.4992584  24.6877584  27.5212584  40.5432584  25.2887584
  13.1542584  39.7302584  21.4587584  13.9022584  40.3252584  21.5027584
  12.3952584  40.2842584  21.6427584  25.1572584  43.2122584  10.9537584
  24.2452584  43.4802584  11.0697584  25.3912584  42.7932584  11.7827584
  13.5752584  42.3122584  16.8977584  14.0172584  42.5952584  17.6977584
  13.9702584  42.8422584  16.2047584  17.7262584  43.2712584  21.7047584
  17.6402584  43.9422584  21.0267584  18.5732584  43.4492584  22.1127584
  25.0502584  44.2312584  16.9397584  25.9672584  44.0462584  16.7377584
  24.5612584  43.8412584  16.2157584  32.0142584  45.8642584  19.2297584
  32.1242584  45.1652584  18.5847584  32.6922584  46.5022584  19.0097584
  23.6002584  42.0632584  29.6677584  24.3032584  42.7132584  29.6647584
  23.3902584  41.9412584  30.5937584  18.8382584  46.5612584  34.2267584
  19.1132584  45.9282584  34.8907584  19.1242584  47.4072584  34.5707584
  20.6812584  46.7942584  28.4017584  19.7652584  46.9072584  28.6577584
  20.9112584  47.6142584  27.9647584  12.5692584  44.2852584  15.1597584
  13.1312584  45.0272584  14.9367584  12.3202584  44.4382584  16.0717584
  24.2522584  42.7252584  14.3137584  24.5162584  41.8622584  14.6327584
  23.5262584  42.5472584  13.7147584  16.4932584  43.1832584  27.2987584
  15.6712584  43.2002584  26.8087584  16.2242584  43.1442584  28.2167584
  36.0242584  45.7062584  12.9077584  36.0632584  45.4122584  13.8177584
  36.7332584  45.2312584  12.4727584  20.0252584  44.5302584  36.4757584
  19.4152584  45.2342584  36.6937584  19.4832584  43.8662584  36.0497584
  12.8572584  46.6092584  28.8717584  13.4562584  46.3132584  29.5577584
  12.3822584  45.8202584  28.6117584  13.1042584  44.6982584  33.7957584
  13.0572584  43.7422584  33.7807584  12.4512584  44.9812584  33.1567584
  19.2732584  40.7222584  36.2747584  19.0882584  40.7762584  37.2117584
  18.8682584  41.5062584  35.9037584  27.3092584  42.2712584  25.6467584
  27.8012584  42.9352584  25.1637584  26.4572584  42.2402584  25.2117584
  12.8892584  44.9952584  38.5847584  13.4662584  45.2182584  37.8547584
  13.4232584  45.1412584  39.3657584  17.3132584  40.1972584  14.0317584
  16.7632584  40.2682584  13.2507584  18.1672584  40.5282584  13.7537584
  14.3482584  45.5742584  36.1607584  13.8672584  45.4602584  35.3417584
  14.4672584  46.5202584  36.2397584  31.9612584  44.5042584  27.7657584
  31.0222584  44.4642584  27.5837584  32.3752584  44.1752584  26.9677584
  18.6162584  39.8482584  32.9837584  18.9912584  39.7292584  33.8567584
  19.3662584  40.0542584  32.4257584  11.5672584  40.4692584  33.2117584
  12.2382584  41.0212584  33.6147584  10.9472584  41.0882584  32.8277584
   8.9682584  39.0602584  39.5557584   9.7682584  39.5062584  39.8337584
   8.3012584  39.7472584  39.5477584  18.0052584  42.9442584  35.3257584
  17.1062584  43.0072584  35.6487584  17.9152584  42.8982584  34.3737584
  14.6042584  46.6812584  33.1587584  14.1972584  45.8232584  33.2767584
  14.0912584  47.0972584  32.4657584  13.1522584  40.9202584  40.2717584
  12.5962584  40.8482584  41.0467584  12.6682584  40.4622584  39.5847584
  36.1272584  38.3392584  37.9877584  36.4972584  39.0832584  38.4627584
  36.6522584  38.2782584  37.1897584  26.0202584  41.9652584  32.9697584
  26.0522584  41.0512584  33.2537584  26.5302584  41.9822584  32.1597584
  21.8512584  40.0782584  34.9477584  22.4922584  39.9852584  35.6527584
  21.0842584  40.4642584  35.3707584  14.4042584  46.4402584  16.0057584
  13.8352584  47.1922584  16.1707584  15.1622584  46.5832584  16.5717584
  37.3092584  46.5992584  22.0417584  37.3862584  45.6852584  21.7667584
  36.4872584  46.8982584  21.6537584  14.1022584  43.0042584  26.0907584
  13.6202584  43.5562584  25.4757584  13.4752584  42.8192584  26.7897584
  22.4442584  46.7132584  35.9527584  21.7302584  46.0802584  36.0237584
  22.9152584  46.6382584  36.7827584  22.6362584  38.5952584  23.8487584
  23.3012584  37.9452584  24.0777584  22.7812584  39.3142584  24.4627584
  12.3082584  42.4402584  37.4927584  11.3802584  42.5752584  37.3017584
  12.5422584  43.1642584  38.0727584  28.7352584  40.7132584  34.9257584
  28.3882584  40.5502584  34.0487584  28.6362584  39.8782584  35.3827584
  10.7502584  45.6252584  36.6637584  11.5502584  45.1062584  36.7477584
  10.6042584  45.6892584  35.7197584  35.6262584  39.7512584  28.3917584
  35.5692584  38.8272584  28.6357584  35.5722584  40.2222584  29.2237584
  23.0272584  41.7452584  12.1127584  23.5862584  40.9692584  12.0747584
  22.6822584  41.8362584  11.2247584   8.0682584  41.8522584  34.5797584
   7.7492584  40.9752584  34.3687584   8.8312584  41.9732584  34.0137584
  17.7122584  45.6122584  26.5467584  17.7372584  44.7582584  26.9787584
  17.3342584  45.4342584  25.6857584  22.7512584  42.6232584  36.7347584
  22.0562584  43.2812584  36.7457584  22.9842584  42.5352584  35.8107584
  16.5712584  46.5182584  38.8767584  15.9952584  46.6112584  38.1177584
  17.3802584  46.9602584  38.6197584  15.1402584  45.5312584  30.3557584
  15.1172584  44.5752584  30.3287584  15.9802584  45.7402584  30.7657584
   8.3152584  44.4882584  20.2607584   7.8422584  44.7552584  19.4727584
   9.1142584  45.0152584  20.2517584   9.3612584  43.1112584  22.7097584
   8.8852584  43.4522584  21.9527584   9.0372584  43.6252584  23.4487584
  21.0532584  45.1732584  13.0897584  20.2612584  45.6362584  12.8137584
  20.7442584  44.5282584  13.7257584  20.2842584  43.5602584  15.2837584
  20.8762584  43.5512584  16.0357584  19.5912584  42.9422584  15.5167584
  16.3602584  43.8722584  16.3677584  16.0442584  44.1052584  15.4947584
  16.6122584  42.9522584  16.2947584  20.0492584  40.4862584  20.2277584
  20.8272584  39.9902584  20.4837584  19.8322584  41.0082584  20.9997584
  27.2792584  41.4662584  12.0377584  27.6262584  40.7822584  11.4647584
  26.4182584  41.1422584  12.3027584  35.3702584  40.8562584  30.7707584
  34.5682584  40.6432584  31.2487584  35.6222584  41.7202584  31.0957584
   8.1852584  38.4292584  36.3567584   8.9702584  38.5002584  35.8137584
   8.4352584  38.8232584  37.1927584  17.6262584  39.8782584  26.3417584
  17.7922584  39.9062584  27.2847584  17.9012584  40.7382584  26.0247584
  33.5312584  46.9552584  25.3267584  33.1252584  47.8222584  25.3467584
  32.7932584  46.3452584  25.3197584  20.8372584  38.8772584  12.4667584
  20.0562584  38.6542584  11.9607584  20.8422584  39.8342584  12.4927584
  10.3672584  39.0172584  15.1937584  11.3222584  39.0842584  15.1877584
  10.0712584  39.8422584  15.5777584  20.1442584  39.7392584  23.1547584
  20.7672584  39.0392584  23.3517584  19.3002584  39.3982584  23.4497584
  14.3932584  40.6192584  30.4167584  14.9452584  39.8532584  30.2597584
  13.6422584  40.2782584  30.9037584  34.5462584  38.7442584  23.4527584
  34.7032584  38.1072584  24.1497584  35.1302584  39.4742584  23.6587584
  15.5512584  42.6122584  12.4797584  15.6422584  43.2552584  13.1827584
  14.7302584  42.1582584  12.6737584  10.6342584  44.6152584  12.5247584
  11.1962584  45.2822584  12.1297584  11.1692584  44.2332584  13.2207584
   7.3302584  41.9932584  16.4567584   7.1852584  41.0792584  16.2147584
   7.2662584  42.0012584  17.4117584  27.0972584  38.7252584  36.9347584
  26.5002584  38.4872584  37.6437584  27.4892584  39.5512584  37.2177584
  15.8892584  43.3702584  36.8387584  15.7592584  43.2692584  37.7817584
  15.1602584  43.9212584  36.5527584  12.2482584  39.4342584  38.2367584
  12.4302584  40.2432584  37.7597584  12.1172584  38.7772584  37.5527584
  15.6532584  40.9882584  35.5487584  15.2852584  40.2462584  36.0277584
  15.6622584  41.7032584  36.1847584  33.9642584  42.0992584  33.3467584
  33.9662584  41.2712584  33.8267584  34.5482584  42.6682584  33.8467584
  17.1122584  41.9882584  32.4437584  16.3082584  41.8952584  32.9547584
  17.7022584  41.3242584  32.7997584  18.0382584  40.6252584  38.7487584
  17.1582584  40.4262584  38.4287584  17.9142584  40.8442584  39.6717584
  23.0722584  40.5382584  32.3187584  22.7082584  40.3902584  33.1917584
  23.9762584  40.2302584  32.3807584  21.7282584  41.7912584  39.3567584
  21.3652584  40.9222584  39.1807584  22.2472584  41.9952584  38.5787584
  20.2582584  39.9882584  30.6197584  21.1582584  40.0382584  30.9427584
  20.1332584  39.0652584  30.3997584  15.4462584  39.7012584  38.7627584
  14.7892584  39.8422584  39.4447584  15.3822584  38.7672584  38.5587584
  25.6802584  46.4622584  12.2267584  26.3932584  46.8162584  12.7577584
  25.2442584  47.2342584  11.8647584  32.2872584  41.4472584  36.0237584
  31.9532584  41.1282584  35.1857584  32.8302584  40.7312584  36.3537584
  16.2792584  39.6102584  11.7947584  15.5952584  38.9402584  11.7707584
  15.8662584  40.3882584  11.4217584  12.6952584  38.6102584  31.5167584
  12.3452584  39.2372584  32.1497584  12.5572584  37.7552584  31.9257584
  21.8642584  46.2302584  15.9747584  22.5562584  46.1092584  15.3247584
  21.5932584  45.3412584  16.2037584  19.4362584  44.7802584  18.4967584
  20.2572584  44.3532584  18.2537584  18.7702584  44.3362584  17.9717584
  17.9672584  44.6452584  40.5857584  18.3142584  45.3232584  41.1647584
  17.3472584  45.1062584  40.0197584  26.5702584  45.9802584  23.4117584
  26.7572584  46.4132584  22.5787584  26.1732584  46.6622584  23.9537584
  34.6722584  42.4282584  21.2727584  34.5302584  42.7282584  20.3757584
  34.9072584  41.5042584  21.1837584  31.0352584  46.3452584  21.7527584
  30.4582584  46.9192584  21.2497584  31.6962584  46.0582584  21.1227584
  31.3332584  39.7842584  21.5617584  30.4172584  39.9032584  21.8117584
  31.3032584  39.1762584  20.8237584   7.2542584  45.1622584  28.2027584
   7.9722584  45.7662584  28.3917584   6.9112584  45.4552584  27.3587584
  25.8162584  43.3242584  23.1277584  26.3862584  42.9172584  22.4747584
  26.1902584  44.1952584  23.2637584  34.9542584  41.2192584  14.5687584
  35.4092584  40.4522584  14.2207584  34.2342584  41.3692584  13.9567584
  23.0632584  45.4512584  11.2797584  22.3962584  45.2862584  11.9467584
  23.6502584  46.0912584  11.6807584  33.1332584  43.8702584  25.3877584
  33.3522584  44.2732584  24.5477584  32.9562584  42.9542584  25.1757584
  32.6442584  45.4042584  16.1187584  32.0792584  44.6412584  15.9977584
  32.9572584  45.6132584  15.2377584  23.9012584  45.4402584  14.5057584
  24.3902584  45.9492584  13.8587584  23.9782584  44.5342584  14.2057584
  12.8092584  42.3502584  28.5817584  13.3232584  41.8492584  29.2137584
  12.3032584  41.6902584  28.1067584  32.4902584  44.0512584  30.3587584
  33.3652584  43.7162584  30.1627584  32.1152584  44.2582584  29.5027584
  17.7012584  45.5692584  31.5337584  18.5412584  45.2272584  31.2257584
  17.8222584  45.6892584  32.4757584  36.7262584  39.1342584  13.9957584
  37.3892584  39.1972584  13.3087584  36.3362584  38.2682584  13.8737584
   7.7522584  41.8712584  12.7257584   8.0972584  42.3762584  11.9897584
   6.8132584  41.8042584  12.5517584  25.2102584  45.4412584  37.8387584
  24.5192584  44.9952584  38.3277584  25.2932584  44.9392584  37.0277584
  33.9362584  42.0482584  28.4817584  33.6592584  42.5172584  27.6947584
  33.2402584  41.4112584  28.6397584  27.0892584  46.2172584  39.8537584
  26.6492584  45.9522584  39.0457584  26.4672584  46.0032584  40.5477584
  28.4602584  39.1902584  19.2027584  28.5932584  39.5342584  20.0857584
  27.7852584  38.5192584  19.3067584  31.3772584  42.8642584  39.8947584
  31.1132584  43.4562584  39.1907584  30.6282584  42.8522584  40.4917584
  34.2142584  39.0492584  33.9757584  33.3052584  38.8072584  33.7967584
  34.6522584  38.2182584  34.1597584  30.5562584  43.4792584  22.4347584
  30.9582584  44.3152584  22.1967584  31.2972584  42.8992584  22.6127584
  32.1692584  39.4632584  30.7327584  31.8662584  39.8312584  29.9027584
  31.6692584  39.9322584  31.4007584  33.5152584  45.9272584  34.5617584
  33.4952584  45.1872584  35.1677584  34.2982584  46.4192584  34.8097584
   7.2242584  44.7692584  17.9087584   6.6462584  44.3282584  17.2847584
   7.9022584  45.1712584  17.3647584  12.6042584  40.0732584  24.7207584
  13.5462584  39.9802584  24.5737584  12.3132584  40.6792584  24.0397584
  19.2342584  42.2232584  10.9287584  18.6422584  42.9462584  10.7217584
  19.9092584  42.2642584  10.2507584  31.6532584  40.5212584  28.1857584
  31.8912584  40.6182584  27.2637584  31.1132584  39.7312584  28.2127584
  15.7432584  42.8332584  30.0477584  16.3502584  42.5302584  30.7237584
  15.0082584  42.2212584  30.0947584  34.8672584  45.6642584  39.1127584
  35.3862584  46.4382584  38.8927584  34.7072584  45.2342584  38.2727584
  28.4272584  40.1642584  21.6697584  28.2502584  40.1822584  22.6097584
  28.2912584  41.0672584  21.3827584  29.3102584  44.6582584  27.0807584
  28.7692584  45.2522584  27.6007584  28.8742584  44.6182584  26.2297584
  35.1882584  39.9782584  19.9157584  34.8622584  39.2082584  20.3807584
  34.7792584  39.9282584  19.0517584   9.8892584  42.5242584  32.4907584
   9.4992584  42.0212584  31.7757584  10.1932584  43.3322584  32.0757584
  19.3332584  45.8902584  22.8417584  20.2732584  45.8652584  22.6627584
  19.1602584  45.0842584  23.3277584   9.1602584  46.6862584  29.0467584
  10.0112584  47.0902584  29.2147584   8.6022584  46.9962584  29.7597584
  34.6972584  44.3922584  23.2957584  34.8282584  43.5672584  22.8277584
  34.6262584  45.0512584  22.6047584  13.2592584  41.9392584  13.9547584
  12.9062584  42.8032584  14.1687584  12.5692584  41.5202584  13.4397584
  27.3562584  41.6832584  17.7937584  27.9822584  41.1172584  18.2467584
  26.6222584  41.7642584  18.4017584  29.3582584  46.2022584  19.2547584
  30.2722584  45.9182584  19.2227584  29.3212584  46.9582584  18.6687584
  34.3042584  46.3572584  21.3787584  33.8632584  47.0942584  21.8017584
  34.4792584  46.6622584  20.4877584  31.6242584  46.6672584  10.7857584
  32.1932584  47.2672584  10.3037584  32.1432584  46.4032584  11.5457584
  27.6392584  44.1592584  16.5707584  27.8832584  43.3732584  17.0587584
  28.4742584  44.5342584  16.2877584  22.2642584  41.5442584  22.5927584
  23.1242584  41.1362584  22.4897584  21.7702584  40.9302584  23.1367584
   8.4482584  45.2452584  24.7827584   7.5602584  45.1722584  25.1297584
   8.7412584  46.1152584  25.0527584  31.9812584  40.5492584  16.5187584
  31.3772584  39.8062584  16.5317584  32.8512584  40.1502584  16.5237584
  31.6982584  42.2202584  18.9567584  31.8592584  41.5602584  18.2827584
  32.5622584  42.3972584  19.3307584  28.6142584  44.3932584  24.3457584
  27.9382584  44.8882584  23.8827584  29.2322584  44.1342584  23.6617584
  34.4312584  43.4042584  18.6807584  34.5842584  44.3252584  18.8937584
  34.7542584  43.3092584  17.7847584  30.4522584  38.9032584  24.8447584
  30.8972584  38.1962584  24.3777584  31.1422584  39.5392584  25.0317584
  23.4552584  44.0972584  22.4247584  24.3492584  43.7872584  22.5647584
  22.9202584  43.3042584  22.4457584  32.4542584  40.9562584  25.7697584
  33.3532584  40.6322584  25.8337584  32.3062584  41.0692584  24.8307584
  30.2142584  46.8682584  14.1247584  30.4082584  47.8042584  14.0697584
  30.6312584  46.5842584  14.9387584  25.5902584  40.2012584  15.1267584
  25.3652584  39.4662584  15.6967584  26.5462584  40.2412584  15.1537584
  27.1032584  46.8012584  20.6857584  27.1032584  47.6852584  20.3187584
  27.8072584  46.3492584  20.2227584  25.7382584  44.6692584  19.5657584
  25.8802584  44.7392584  18.6217584  26.0522584  45.5012584  19.9187584
  24.7762584  40.5512584  22.3187584  24.7292584  40.3592584  23.2557584
  24.6352584  39.7062584  21.8937584  30.2812584  44.4792584  12.9057584
  30.3112584  45.3972584  13.1747584  29.7702584  44.4822584  12.0967584
  30.2862584  43.0152584  37.2367584  30.9862584  42.5872584  36.7447584
  29.6492584  43.2752584  36.5717584  37.1932584  41.7462584  19.3547584
  36.4812584  41.1212584  19.4917584  36.8172584  42.5942584  19.5887584
  15.1162584  39.3632584  17.6807584  15.5792584  39.8382584  18.3707584
  14.8052584  40.0462584  17.0867584  33.2562584  44.6362584  13.4927584
  33.9692584  44.9102584  12.9157584  32.6692584  44.1352584  12.9267584
  35.5592584  43.9012584  29.9207584  35.9972584  44.4272584  29.2517584
  35.2532584  43.1242584  29.4527584  20.8992584  39.2422584  39.4137584
  20.0022584  39.1092584  39.7187584  21.4382584  39.1262584  40.1967584
  28.1352584  42.8182584  28.3747584  27.7752584  42.3402584  27.6277584
  28.7172584  43.4702584  27.9837584  31.3062584  40.1692584  38.7347584
  31.9742584  39.8642584  38.1207584  31.5992584  41.0432584  38.9927584
   7.8762584  42.9152584  37.1997584   8.0152584  42.7692584  36.2647584
   8.0702584  43.8432584  37.3297584  28.3872584  43.4342584  35.0277584
  27.5432584  43.6982584  35.3927584  28.4492584  42.4982584  35.2177584
  33.7372584  44.0132584  36.5587584  33.0142584  43.4002584  36.4257584
  34.5162584  43.5282584  36.2857584   9.8422584  45.5062584  33.9497584
  10.1092584  46.3182584  33.5177584   9.2972584  45.0582584  33.3017584
  34.2022584  46.1882584  31.5297584  34.3572584  46.0012584  32.4557584
  33.3682584  45.7592584  31.3357584  29.3802584  45.7832584  33.8537584
  29.8262584  45.6642584  33.0157584  29.1782584  44.8942584  34.1467584
   8.9072584  43.1822584  14.8467584   8.5862584  42.7652584  14.0467584
   8.2792584  42.9232584  15.5207584  35.0822584  41.3732584  11.4087584
  34.3322584  40.8002584  11.5697584  34.7642584  42.2502584  11.6197584
  24.7822584  44.3792584  32.4847584  25.1202584  43.4852584  32.5347584
  25.4332584  44.8542584  31.9677584  25.8262584  42.2272584  38.3187584
  26.6392584  41.7292584  38.2337584  25.7792584  42.4542584  39.2477584
  27.2612584  45.0362584  31.2967584  27.6042584  44.1742584  31.0617584
  28.0402584  45.5712584  31.4487584  36.6072584  41.6002584  26.6917584
  36.4302584  40.8192584  27.2167584  36.1002584  42.2932584  27.1157584
  25.0732584  46.0592584  34.7417584  24.9512584  45.1102584  34.7117584
  24.2092584  46.4052584  34.9677584  37.0432584  41.0282584  39.3277584
  36.5052584  41.3582584  40.0467584  36.9132584  41.6602584  38.6207584
  31.1942584  43.1412584  15.6907584  31.0782584  42.9572584  14.7587584
  31.4412584  42.2992584  16.0727584  35.8912584  43.4152584  34.5927584
  36.4222584  44.0992584  35.0017584  36.4642584  42.6492584  34.5677584
   9.7102584  42.2252584  39.6137584   9.5332584  43.1642584  39.6567584
   9.1982584  41.9172584  38.8657584  30.2902584  45.5282584  31.3517584
  30.7652584  46.2242584  30.8977584  30.7762584  44.7302584  31.1417584
   7.3142584  45.6082584  35.6557584   8.1942584  45.7422584  35.3017584
   6.8712584  46.4462584  35.5207584  28.4762584  42.6472584  20.8567584
  29.3642584  42.8652584  21.1397584  28.1502584  43.4512584  20.4507584
  13.2452584  44.4732584  23.6097584  13.9552584  44.3602584  22.9777584
  13.1732584  45.4202584  23.7237584  31.3072584  42.1502584  31.7427584
  31.7812584  42.9102584  31.4037584  31.7352584  41.9532584  32.5757584
  20.9352584  44.8872584  26.2587584  21.4382584  45.2822584  25.5467584
  20.6212584  45.6322584  26.7717584  24.4092584  40.6762584  24.8827584
  24.6502584  40.1182584  25.6227584  24.1892584  41.5192584  25.2797584
  13.3692584  42.0802584  34.4807584  14.2252584  41.8682584  34.8537584
  12.8202584  42.2792584  35.2387584  34.6672584  46.7302584  17.9967584
  34.2722584  47.4902584  17.5687584  34.6462584  46.0432584  17.3307584
  11.8322584  46.6402584  10.9807584  11.7432584  47.5762584  11.1597584
  12.7732584  46.4742584  11.0357584  10.7722584  43.7282584  25.3427584
  11.4802584  44.1812584  24.8837584  10.0402584  44.3452584  25.3237584
  21.5612584  47.0292584  31.1107584  21.6202584  47.9812584  31.1877584
  21.5912584  46.8622584  30.1687584   8.9032584  42.9932584  27.9817584
   8.4612584  42.5472584  27.2587584   8.2742584  43.6512584  28.2777584
  10.9792584  41.5732584  16.1607584  11.9332584  41.6502584  16.1937584
  10.6962584  42.3182584  15.6307584  26.7472584  38.4932584  27.8567584
  27.0452584  38.7832584  26.9947584  25.8732584  38.8712584  27.9487584
  23.4302584  41.0272584  17.6557584  23.6912584  40.1512584  17.3727584
  24.2502584  41.4542584  17.9017584  25.0482584  42.0832584  19.4427584
  25.2152584  43.0132584  19.5987584  24.8882584  41.7182584  20.3127584
  28.8922584  38.4462584  30.0257584  29.5042584  38.2322584  29.3207584
  28.1492584  38.8552584  29.5817584  28.3072584  40.5452584  15.3587584
  28.3042584  41.0942584  16.1437584  28.7542584  41.0742584  14.6977584
  32.4222584  41.6812584  23.0297584  32.0492584  41.0742584  22.3907584
  33.2782584  41.9132584  22.6697584  32.7092584  40.5752584  12.8937584
  31.8902584  41.0682584  12.8487584  32.4722584  39.7532584  13.3227584
  18.9882584  42.6152584  26.0857584  18.2512584  42.8212584  26.6617584
  19.6902584  43.1962584  26.3777584  23.2402584  42.9982584  26.3907584
  23.2742584  42.9442584  27.3457584  22.6462584  43.7282584  26.2137584
  34.5502584  39.6142584  16.8867584  34.8242584  40.0972584  16.1067584
  35.2072584  38.9252584  16.9857584   7.3222584  38.7132584  16.7637584
   7.3272584  38.6412584  15.8087584   7.8672584  37.9852584  17.0617584
  24.9962584  39.9322584  12.6347584  25.0112584  39.7422584  13.5727584
  25.1892584  39.0922584  12.2167584  15.0392584  43.0882584  39.4507584
  15.4142584  43.1732584  40.3267584  14.5562584  42.2622584  39.4747584
  28.2852584  41.2812584  38.3377584  28.8222584  40.7002584  38.8767584
  28.8992584  41.9372584  38.0067584  36.9322584  39.6842584  33.3467584
  37.1652584  39.0322584  32.6857584  35.9902584  39.5692584  33.4757584
  33.8212584  43.6032584  40.7757584  32.9972584  43.2062584  40.4937584
  33.8162584  44.4732584  40.3767584  33.3102584  39.1112584  37.1587584
  33.0802584  38.5222584  36.4407584  34.1032584  38.7312584  37.5367584
  10.9892584  41.0742584  12.1557584  10.3522584  41.5322584  11.6067584
  10.4622584  40.4882584  12.6977584  27.9312584  42.3362584  30.8667584
  28.0562584  42.3862584  29.9197584  28.8022584  42.4872584  31.2327584
  24.0292584  39.6442584  37.7097584  24.6692584  39.0292584  38.0697584
  24.3162584  40.5012584  38.0247584  31.1512584  40.1012584  33.9817584
  30.2772584  40.3802584  34.2567584  31.1942584  39.1752584  34.2207584
  36.5512584  44.9002584  32.3617584  36.1622584  44.6052584  31.5387584
  36.2192584  44.2872584  33.0177584  29.5092584  39.0372584  10.6397584
  30.0422584  38.7602584  11.3847584  30.1452584  39.2512584   9.9567584
   8.0622584  44.6512584  11.5247584   8.3912584  45.1052584  10.7487584
   8.8062584  44.6322584  12.1257584  35.2302584  43.9972584  46.1687584
  34.2902584  44.1172584  46.0327584  35.4092584  43.1132584  45.8497584
   8.7822584  46.3022584  45.7577584   9.1062584  45.5142584  45.3227584
   9.5682584  46.7282584  46.1007584  15.5472584  44.8182584  44.1217584
  16.2112584  45.3402584  43.6717584  15.1812584  45.4112584  44.7787584
  29.6482584  42.0392584  43.2837584  28.8752584  42.0092584  42.7197584
  29.9912584  42.9262584  43.1727584  13.2002584  39.3142584  45.0827584
  14.0492584  38.9052584  44.9137584  13.3542584  40.2492584  44.9507584
  19.3842584  41.4612584  47.2687584  19.7762584  41.9412584  47.9987584
  20.0192584  40.7742584  47.0637584  11.6832584  42.7492584  49.2307584
  11.0122584  42.1112584  49.4707584  11.9452584  42.5012584  48.3447584
  19.8092584  41.1762584  43.2657584  19.4412584  41.5462584  42.4637584
  20.4682584  41.8132584  43.5437584  17.3362584  46.9782584  43.5657584
  17.9932584  47.0392584  42.8727584  17.7872584  47.2872584  44.3517584
  15.6952584  42.5722584  49.2317584  16.0562584  42.8882584  48.4037584
  16.1742584  41.7622584  49.4087584  11.3652584  46.4742584  47.1777584
  10.7932584  46.7652584  47.8877584  11.5162584  47.2602584  46.6527584
  16.9652584  41.3182584  46.2607584  17.8142584  41.1692584  46.6787584
  16.9932584  40.7892584  45.4637584  26.1842584  46.7812584  46.5887584
  27.1022584  46.8122584  46.8597584  26.0382584  45.8692584  46.3397584
  20.6372584  38.9982584  45.7447584  21.4542584  38.9772584  46.2417584
  20.9112584  38.9442584  44.8287584  21.9252584  43.4642584  47.3557584
  22.4812584  42.6882584  47.2867584  22.4612584  44.1032584  47.8257584
  25.1572584  43.2122584  40.9537584  24.2452584  43.4802584  41.0697584
  25.3912584  42.7932584  41.7827584  13.5752584  42.3122584  46.8977584
  14.0172584  42.5952584  47.6977584  13.9702584  42.8422584  46.2047584
  25.0502584  44.2312584  46.9397584  25.9672584  44.0462584  46.7377584
  24.5612584  43.8412584  46.2157584  12.5692584  44.2852584  45.1597584
  13.1312584  45.0272584  44.9367584  12.3202584  44.4382584  46.0717584
  24.2522584  42.7252584  44.3137584  24.5162584  41.8622584  44.6327584
  23.5262584  42.5472584  43.7147584  36.0242584  45.7062584  42.9077584
  36.0632584  45.4122584  43.8177584  36.7332584  45.2312584  42.4727584
  17.3132584  40.1972584  44.0317584  16.7632584  40.2682584  43.2507584
  18.1672584  40.5282584  43.7537584  14.4042584  46.4402584  46.0057584
  13.8352584  47.1922584  46.1707584  15.1622584  46.5832584  46.5717584
  23.0272584  41.7452584  42.1127584  23.5862584  40.9692584  42.0747584
  22.6822584  41.8362584  41.2247584  21.0532584  45.1732584  43.0897584
  20.2612584  45.6362584  42.8137584  20.7442584  44.5282584  43.7257584
  20.2842584  43.5602584  45.2837584  20.8762584  43.5512584  46.0357584
  19.5912584  42.9422584  45.5167584  16.3602584  43.8722584  46.3677584
  16.0442584  44.1052584  45.4947584  16.6122584  42.9522584  46.2947584
  27.2792584  41.4662584  42.0377584  27.6262584  40.7822584  41.4647584
  26.4182584  41.1422584  42.3027584  20.8372584  38.8772584  42.4667584
  20.0562584  38.6542584  41.9607584  20.8422584  39.8342584  42.4927584
  10.3672584  39.0172584  45.1937584  11.3222584  39.0842584  45.1877584
  10.0712584  39.8422584  45.5777584  15.5512584  42.6122584  42.4797584
  15.6422584  43.2552584  43.1827584  14.7302584  42.1582584  42.6737584
  10.6342584  44.6152584  42.5247584  11.1962584  45.2822584  42.1297584
  11.1692584  44.2332584  43.2207584   7.3302584  41.9932584  46.4567584
   7.1852584  41.0792584  46.2147584   7.2662584  42.0012584  47.4117584
  25.6802584  46.4622584  42.2267584  26.3932584  46.8162584  42.7577584
  25.2442584  47.2342584  41.8647584  16.2792584  39.6102584  41.7947584
  15.5952584  38.9402584  41.7707584  15.8662584  40.3882584  41.4217584
  21.8642584  46.2302584  45.9747584  22.5562584  46.1092584  45.3247584
  21.5932584  45.3412584  46.2037584  19.4362584  44.7802584  48.4967584
  20.2572584  44.3532584  48.2537584  18.7702584  44.3362584  47.9717584
  34.9542584  41.2192584  44.5687584  35.4092584  40.4522584  44.2207584
  34.2342584  41.3692584  43.9567584  23.0632584  45.4512584  41.2797584
  22.3962584  45.2862584  41.9467584  23.6502584  46.0912584  41.6807584
  32.6442584  45.4042584  46.1187584  32.0792584  44.6412584  45.9977584
  32.9572584  45.6132584  45.2377584  23.9012584  45.4402584  44.5057584
  24.3902584  45.9492584  43.8587584  23.9782584  44.5342584  44.2057584
  36.7262584  39.1342584  43.9957584  37.3892584  39.1972584  43.3087584
  36.3362584  38.2682584  43.8737584   7.7522584  41.8712584  42.7257584
   8.0972584  42.3762584  41.9897584   6.8132584  41.8042584  42.5517584
   7.2242584  44.7692584  47.9087584   6.6462584  44.3282584  47.2847584
   7.9022584  45.1712584  47.3647584  19.2342584  42.2232584  40.9287584
  18.6422584  42.9462584  40.7217584  19.9092584  42.2642584  40.2507584
  13.2592584  41.9392584  43.9547584  12.9062584  42.8032584  44.1687584
  12.5692584  41.5202584  43.4397584  27.3562584  41.6832584  47.7937584
  27.9822584  41.1172584  48.2467584  26.6222584  41.7642584  48.4017584
  31.6242584  46.6672584  40.7857584  32.1932584  47.2672584  40.3037584
  32.1432584  46.4032584  41.5457584  27.6392584  44.1592584  46.5707584
  27.8832584  43.3732584  47.0587584  28.4742584  44.5342584  46.2877584
  31.9812584  40.5492584  46.5187584  31.3772584  39.8062584  46.5317584
  32.8512584  40.1502584  46.5237584  31.6982584  42.2202584  48.9567584
  31.8592584  41.5602584  48.2827584  32.5622584  42.3972584  49.3307584
  34.4312584  43.4042584  48.6807584  34.5842584  44.3252584  48.8937584
  34.7542584  43.3092584  47.7847584  30.2142584  46.8682584  44.1247584
  30.4082584  47.8042584  44.0697584  30.6312584  46.5842584  44.9387584
  25.5902584  40.2012584  45.1267584  25.3652584  39.4662584  45.6967584
  26.5462584  40.2412584  45.1537584  30.2812584  44.4792584  42.9057584
  30.3112584  45.3972584  43.1747584  29.7702584  44.4822584  42.0967584
  15.1162584  39.3632584  47.6807584  15.5792584  39.8382584  48.3707584
  14.8052584  40.0462584  47.0867584  33.2562584  44.6362584  43.4927584
  33.9692584  44.9102584  42.9157584  32.6692584  44.1352584  42.9267584
   8.9072584  43.1822584  44.8467584   8.5862584  42.7652584  44.0467584
   8.2792584  42.9232584  45.5207584  35.0822584  41.3732584  41.4087584
  34.3322584  40.8002584  41.5697584  34.7642584  42.2502584  41.6197584
  31.1942584  43.1412584  45.6907584  31.0782584  42.9572584  44.7587584
  31.4412584  42.2992584  46.0727584  34.6672584  46.7302584  47.9967584
  34.2722584  47.4902584  47.5687584  34.6462584  46.0432584  47.3307584
  11.8322584  46.6402584  40.9807584  11.7432584  47.5762584  41.1597584
  12.7732584  46.4742584  41.0357584  10.9792584  41.5732584  46.1607584
  11.9332584  41.6502584  46.1937584  10.6962584  42.3182584  45.6307584
  23.4302584  41.0272584  47.6557584  23.6912584  40.1512584  47.3727584
  24.2502584  41.4542584  47.9017584  28.3072584  40.5452584  45.3587584
  28.3042584  41.0942584  46.1437584  28.7542584  41.0742584  44.6977584
  32.7092584  40.5752584  42.8937584  31.8902584  41.0682584  42.8487584
  32.4722584  39.7532584  43.3227584  34.5502584  39.6142584  46.8867584
  34.8242584  40.0972584  46.1067584  35.2072584  38.9252584  46.9857584
   7.3222584  38.7132584  46.7637584   7.3272584  38.6412584  45.8087584
   7.8672584  37.9852584  47.0617584  24.9962584  39.9322584  42.6347584
  25.0112584  39.7422584  43.5727584  25.1892584  39.0922584  42.2167584
  10.9892584  41.0742584  42.1557584  10.3522584  41.5322584  41.6067584
  10.4622584  40.4882584  42.6977584  29.5092584  39.0372584  40.6397584
  30.0422584  38.7602584  41.3847584  30.1452584  39.2512584  39.9567584
   8.0622584  44.6512584  41.5247584   8.3912584  45.1052584  40.7487584
   8.8062584  44.6322584  42.1257584  41.3142584  -7.8907416  -5.6192416
  41.2142584  -7.1417416  -5.0322416  41.8592584  -8.5077416  -5.1312416
  44.1572584   5.7082584 -15.2472416  43.4522584   5.1512584 -14.9172416
  44.1822584   6.4472584 -14.6392416  43.9042584  -2.8557416   2.0897584
  43.5772584  -2.2007416   2.7077584  44.8462584  -2.6927416   2.0447584
  43.0722584 -14.5967416 -10.6792416  42.6072584 -15.3937416 -10.9322416
  43.0962584 -14.0697416 -11.4782416  37.8292584  -7.4927416 -10.8442416
  37.0062584  -7.1727416 -11.2162416  38.1022584  -8.1937416 -11.4352416
  42.8082584  -7.8797416 -10.4302416  42.9582584  -7.8487416  -9.4852416
  41.9472584  -7.4797416 -10.5502416  39.7262584 -14.4027416   9.4667584
  40.4672584 -13.9907416   9.9127584  40.0562584 -14.6057416   8.5917584
  39.5822584  -0.7957416 -15.5342416  40.3752584  -0.2597416 -15.5332416
  39.8662584  -1.6457416 -15.1982416  41.6252584   7.2202584   6.8537584
  42.0912584   6.5432584   6.3627584  40.9772584   7.5612584   6.2367584
  38.7822584 -13.6977416 -14.2422416  39.1062584 -14.4857416 -14.6772416
  39.5682584 -13.2717416 -13.8992416  41.5712584 -19.8707416  -2.7422416
  40.6402584 -19.7337416  -2.9162416  41.9612584 -19.9947416  -3.6072416
  44.0682584   5.3602584  -9.6222416  44.2852584   6.2432584  -9.3242416
  44.2102584   5.3842584 -10.5682416  45.5472584 -15.1817416 -15.8782416
  46.2112584 -14.6597416 -16.3282416  45.1812584 -14.5887416 -15.2212416
  44.9872584  -7.7957416 -12.2882416  44.3522584  -8.0567416 -11.6212416
  45.5582584  -8.5577416 -12.3872416  44.8422584  -4.2647416  -6.8782416
  44.3262584  -3.6717416  -6.3312416  44.8072584  -5.1047416  -6.4202416
  44.4012584 -13.3627416  10.4717584  44.5532584 -12.8237416  11.2477584
  45.2582584 -13.4247416  10.0507584  41.8802584 -17.9547416  -7.0332416
  41.0272584 -17.6157416  -7.3072416  42.4242584 -17.1747416  -6.9262416
  42.1102584  -7.4857416 -13.3262416  42.4362584  -8.2847416 -12.9112416
  41.5892584  -7.0577416 -12.6472416  40.1932584   2.1552584 -14.3872416
  39.7532584   1.5652584 -13.7752416  40.9842584   1.6842584 -14.6492416
  43.6522584  -2.5187416  -5.1692416  42.9902584  -2.6097416  -4.4842416
  44.2832584  -1.8947416  -4.8112416  44.5702584   7.2462584 -17.7002416
  43.8742584   6.7212584 -18.0952416  44.4802584   7.0942584 -16.7592416
  43.2002584 -20.6857416 -14.9172416  44.0492584 -21.0947416 -15.0862416
  43.3542584 -19.7507416 -15.0492416  45.8562584   1.5192584 -13.6532416
  46.3572584   1.1372584 -12.9322416  46.4982584   1.6442584 -14.3522416
  39.9572584 -11.2447416  -3.4412416  39.3912584 -10.7727416  -4.0522416
  39.3512584 -11.6977416  -2.8542416  40.9862584 -15.6367416  -0.8342416
  41.7292584 -16.1717416  -1.1122416  40.2352584 -16.0117416  -1.2952416
  44.4582584 -16.0787416  -8.6102416  43.8432584 -15.5007416  -9.0622416
  44.8342584 -16.6197416  -9.3042416  41.6832584 -17.2507416 -10.7692416
  41.0122584 -17.8887416 -10.5292416  41.9452584 -17.4987416 -11.6552416
  41.1892584 -11.5337416  -0.1442416  41.8992584 -12.0767416  -0.4882416
  41.3292584 -10.6747416  -0.5432416  43.3912584   7.2202584 -11.9882416
  42.8162584   7.7562584 -11.4432416  44.1322584   7.7912584 -12.1912416
  44.5502584  -6.6177416  -5.2742416  43.9342584  -6.9047416  -4.6002416
  44.9052584  -7.4307416  -5.6352416  38.7692584 -19.7287416  -7.0012416
  38.8632584 -20.1677416  -7.8462416  38.9742584 -18.8117416  -7.1822416
  43.0712584 -10.4317416   8.9727584  43.8782584 -10.3567416   9.4807584
  42.3892584 -10.5897416   9.6257584  41.9002584  -6.1457416   3.7477584
  41.7572584  -5.6657416   2.9317584  42.1642584  -5.4747416   4.3767584
  40.1082584  -5.1107416  -5.0172416  40.7212584  -4.4607416  -4.6752416
  39.4382584  -5.1907416  -4.3382416  42.2592584  -9.3677416  -1.2352416
  43.0252584  -9.8497416  -1.5472416  41.8822584  -8.9797416  -2.0252416
  41.6632584 -14.5747416   1.7147584  41.5692584 -14.8487416   0.8017584
  41.6532584 -13.6187416   1.6807584  41.5502584   3.0832584  -6.2472416
  42.3752584   3.5152584  -6.4702416  41.0672584   3.7342584  -5.7392416
  43.2792584  -6.7077416  -7.9372416  42.6602584  -6.1887416  -8.4502416
  43.1892584  -6.3737416  -7.0442416  45.6952584 -17.4277416 -10.7682416
  46.0562584 -17.1117416 -11.5962416  46.1742584 -18.2377416 -10.5912416
  43.0912584   4.6072584  -3.5962416  42.1702584   4.8352584  -3.7212416
  43.4492584   4.5612584  -4.4822416  41.3652584 -13.5257416 -12.8222416
  40.7932584 -13.2347416 -12.1122416  41.5162584 -12.7397416 -13.3472416
  40.7402584   7.6292584  -4.9922416  40.6462584   7.1652584  -5.8242416
  41.2712584   8.3972584  -5.2042416  44.8392584  -5.9767416 -18.8192416
  45.3312584  -6.6597416 -18.3642416  45.3432584  -5.1767416 -18.6692416
  42.9352584 -10.0157416  -7.0942416  42.7032584  -9.7967416  -6.1912416
  43.7782584  -9.5857416  -7.2352416  38.3932584  -3.7537416  10.0687584
  39.0982584  -3.4677416  10.6487584  38.8402584  -4.1957416   9.3477584
  39.6692584  -8.1327416  -7.8632416  40.1602584  -8.2477416  -7.0492416
  39.5862584  -7.1837416  -7.9602416  41.2742584 -10.5937416  -9.1892416
  40.5512584  -9.9827416  -9.0522416  41.8802584 -10.4137416  -8.4692416
  39.6632584 -19.2967416  -9.8942416  39.1142584 -18.5587416 -10.1612416
  39.0752584 -20.0517416  -9.9132416  40.2132584  -5.4757416  -7.7842416
  40.1682584  -5.4057416  -6.8302416  40.3022584  -4.5717416  -8.0872416
  45.2382584  -3.2817416  -2.1102416  45.0062584  -3.9887416  -1.5082416
  45.4352584  -3.7247416  -2.9352416  45.2132584 -20.5147416  -5.3172416
  45.3802584 -19.7617416  -5.8842416  45.7782584 -20.3717416  -4.5562416
  41.0492584   6.7012584 -13.2702416  40.7262584   7.5562584 -13.5552416
  41.9332584   6.8732584 -12.9482416  39.3162584   0.5652584  -1.5202416
  40.0352584   0.2432584  -2.0622416  39.5002584   1.4972584  -1.4052416
  42.9962584  -5.4877416 -15.0682416  43.7882584  -5.9237416 -15.3822416
  42.8112584  -5.9047416 -14.2262416  43.9282584 -11.1567416  -2.4682416
  44.8642584 -11.3537416  -2.5062416  43.5242584 -11.9677416  -2.1592416
  45.3242584  -4.2437416  -9.6962416  45.3052584  -3.3257416  -9.9692416
  45.1902584  -4.2147416  -8.7492416  44.9212584  -8.3137416   7.3877584
  44.6932584  -8.8307416   8.1607584  45.6192584  -7.7307416   7.6847584
  41.6252584 -21.5957416 -10.2282416  42.1472584 -21.2367416  -9.5112416
  40.9012584 -20.9777416 -10.3312416  40.3912584  -6.2787416 -11.3852416
  39.7932584  -6.1517416 -12.1212416  39.9192584  -6.8587416 -10.7892416
  43.5442584  -9.0357416   1.4217584  42.9572584  -8.9297416   0.6727584
  44.0012584  -8.1977416   1.4887584  39.3872584 -19.1327416  -4.3602416
  39.1792584 -19.5507416  -5.1962416  39.9522584 -18.3957416  -4.5952416
  42.4822584  -4.9687416 -18.1362416  43.3912584  -5.1647416 -17.9072416
  42.2882584  -5.5547416 -18.8672416  43.1542584 -20.2697416  -8.5412416
  43.9022584 -19.6747416  -8.4972416  42.3952584 -19.7157416  -8.3572416
  43.2752584  -9.8097416 -16.2542416  42.4552584  -9.3167416 -16.2912416
  43.9132584  -9.1877416 -15.9052416  43.5752584 -17.6877416 -13.1022416
  44.0172584 -17.4047416 -12.3022416  43.9702584 -17.1577416 -13.7952416
  43.6252584 -12.3247416  -9.7122416  42.8472584 -11.7697416  -9.7692416
  43.3862584 -13.1227416 -10.1842416  43.0882584  -2.2167416  -8.8832416
  42.4252584  -1.9717416  -8.2382416  42.6162584  -2.7527416  -9.5202416
  45.1952584  -7.7647416 -15.0932416  45.8772584  -7.1507416 -15.3642416
  45.1192584  -7.6377416 -14.1472416  45.7852584  -1.5577416  -7.7232416
  44.8852584  -1.8827416  -7.7582416  45.6942584  -0.6107416  -7.6152416
  41.2312584   5.6902584  -9.4272416  42.1662584   5.4822584  -9.4252416
  41.1932584   6.6212584  -9.6452416  45.0172584 -11.8607416 -17.4782416
  45.8922584 -12.1707416 -17.2462416  44.5632584 -11.7717416 -16.6402416
  42.5852584 -11.7287416   2.1637584  41.6812584 -11.4817416   2.3577584
  43.0752584 -10.9087416   2.2187584  42.5692584 -15.7147416 -14.8402416
  43.1312584 -14.9727416 -15.0632416  42.3202584 -15.5617416 -13.9282416
  40.2362584  -8.6927416   6.2287584  40.7282584  -8.8407416   5.4217584
  39.9252584  -9.5617416   6.4837584  42.8672584   2.0542584 -19.2982416
  43.2882584   2.3032584 -18.4752416  43.5772584   1.6992584 -19.8322416
  40.2212584  -3.2977416 -17.9472416  40.3502584  -2.3497416 -17.9182416
  41.0662584  -3.6467416 -18.2282416  42.8572584 -13.3907416  -1.1282416
  43.4562584 -13.6867416  -0.4422416  42.3822584 -14.1797416  -1.3882416
  43.1042584 -15.3017416   3.7957584  43.0572584 -16.2577416   3.7807584
  42.4512584 -15.0187416   3.1567584  40.7482584  -8.7837416 -16.1052416
  39.9152584  -9.1517416 -15.8082416  40.6552584  -7.8407416 -15.9692416
  40.6662584 -11.9627416   7.7667584  40.9022584 -12.8487416   7.4927584
  41.2912584 -11.7507416   8.4597584  42.8892584 -15.0047416   8.5847584
  43.4662584 -14.7817416   7.8547584  43.4232584 -14.8587416   9.3657584
  39.8292584 -12.3777416  -6.7252416  39.3182584 -11.7567416  -6.2072416
  39.1772584 -12.9587416  -7.1152416  42.3502584 -10.0967416  -4.2622416
  41.5862584 -10.5167416  -3.8682416  43.1002584 -10.5427416  -3.8672416
  41.5672584 -19.5307416   3.2117584  42.2382584 -18.9787416   3.6147584
  40.9472584 -18.9117416   2.8277584  44.9952584  -5.0217416 -12.3162416
  44.8082584  -5.9517416 -12.1912416  45.0262584  -4.6607416 -11.4302416
  38.9682584 -20.9397416   9.5557584  39.7682584 -20.4937416   9.8337584
  38.3012584 -20.2527416   9.5477584  40.2322584   6.3902584   9.1897584
  40.4592584   6.1962584   8.2797584  40.0982584   7.3372584   9.2067584
  45.3522584 -10.1577416  10.1367584  46.3002584 -10.0277416  10.1447584
  45.1832584 -10.7437416  10.8747584  44.6042584 -13.3187416   3.1587584
  44.1972584 -14.1767416   3.2767584  44.0912584 -12.9027416   2.4657584
  43.1522584 -19.0797416  10.2717584  42.5962584 -19.1517416  11.0467584
  42.6682584 -19.5377416   9.5847584  45.3822584  -4.4127416   4.2097584
  46.2622584  -4.4977416   4.5757584  45.1682584  -3.4847416   4.3107584
  44.4042584 -13.5597416 -13.9942416  43.8352584 -12.8077416 -13.8292416
  45.1622584 -13.4167416 -13.4282416  42.0882584  -2.7127416 -12.8892416
  42.4852584  -1.8677416 -12.6762416  42.6022584  -3.0397416 -13.6272416
  38.0712584   7.5672584 -18.1632416  38.3712584   8.0792584 -18.9142416
  38.2312584   6.6572584 -18.4132416  44.1022584 -16.9957416  -3.9092416
  43.6202584 -16.4437416  -4.5242416  43.4752584 -17.1807416  -3.2102416
  38.8102584 -11.9047416   5.8257584  39.5192584 -12.0287416   6.4567584
  39.2462584 -11.5977416   5.0317584  42.3082584 -17.5597416   7.4927584
  41.3802584 -17.4247416   7.3017584  42.5422584 -16.8357416   8.0727584
  41.7612584  -8.8047416   3.9647584  41.7202584  -7.8587416   4.1067584
  42.0772584  -8.8977416   3.0657584  44.4042584  -9.7507416   5.0137584
  43.5632584  -9.4297416   4.6857584  44.7532584  -9.0247416   5.5297584
  37.3602584 -12.7577416   0.9907584  37.0762584 -13.5607416   1.4267584
  37.1742584 -12.0627416   1.6217584  40.7502584 -14.3747416   6.6637584
  41.5502584 -14.8937416   6.7477584  40.6042584 -14.3107416   5.7197584
  38.1842584  -7.3857416  10.2587584  38.7322584  -6.6217416  10.0767584
  38.1422584  -7.4287416  11.2137584  38.0682584 -18.1477416   4.5797584
  37.7492584 -19.0247416   4.3687584  38.8312584 -18.0267416   4.0137584
  45.1402584 -14.4687416   0.3557584  45.1172584 -15.4247416   0.3287584
  45.9802584 -14.2597416   0.7657584  38.3152584 -15.5117416  -9.7392416
  37.8422584 -15.2447416 -10.5272416  39.1142584 -14.9847416  -9.7482416
  39.8682584  -2.7827416  -8.4042416  40.3772584  -2.2357416  -7.8062416
  40.2482584  -2.6127416  -9.2662416  39.3612584 -16.8887416  -7.2902416
  38.8852584 -16.5477416  -8.0472416  39.0372584 -16.3747416  -6.5512416
  42.1932584   7.9542584  -1.1362416  42.3272584   8.1032584  -0.2002416
  41.8082584   8.7702584  -1.4562416  40.5202584   3.0392584  -0.0122416
  41.3992584   2.6632584  -0.0572416  40.6102584   3.9072584  -0.4052416
  37.2312584  -0.0877416 -14.6812416  38.1242584  -0.4107416 -14.7972416
  36.6832584  -0.7287416 -15.1352416  41.8712584   0.9242584  -2.7952416
  42.4702584   1.6702584  -2.7642416  42.4042584   0.1782584  -2.5192416
  42.9912584  -0.1687416 -12.6152416  43.6472584   0.2142584 -12.0332416
  42.1752584  -0.1307416 -12.1162416  39.5032584  -2.7787416 -13.8562416
  38.8562584  -2.9397416 -13.1682416  40.3482584  -2.9137416 -13.4272416
  43.6892584  -2.6617416 -17.0002416  43.0972584  -2.0467416 -17.4332416
  43.1902584  -3.4767416 -16.9452416  43.0452584   5.8222584  10.5587584
  42.4492584   5.9852584   9.8267584  42.5552584   5.2432584  11.1427584
  44.4582584   1.5232584 -15.9882416  44.7662584   2.2862584 -16.4762416
  44.8392584   1.6262584 -15.1162416  41.4662584  -1.4187416  -6.8112416
  41.0372584  -0.6097416  -6.5342416  42.2272584  -1.4957416  -6.2352416
  40.4402584  -6.0817416 -16.1702416  40.8292584  -5.4237416 -16.7462416
  40.9932584  -6.0737416 -15.3892416  41.3722584  -3.7847416 -10.4512416
  41.4242584  -3.4037416 -11.3272416  40.7852584  -4.5337416 -10.5492416
  43.8982584   3.3012584 -12.3562416  44.5072584   2.8182584 -12.9142416
  43.2452584   3.6532584 -12.9612416  37.9742584  -3.7877416 -16.3102416
  38.5682584  -3.7327416 -15.5612416  38.4992584  -3.4967416 -17.0552416
  44.1062584   4.4902584  -6.3632416  43.9542584   5.4262584  -6.2352416
  45.0542584   4.3882584  -6.2792416  37.8082584  -6.8227416 -16.9472416
  37.1792584  -6.1117416 -16.8282416  38.6592584  -6.4227416 -16.7702416
  44.8712584  -5.9287416  -1.1532416  44.5742584  -5.9597416  -0.2442416
  45.6482584  -6.4877416  -1.1722416  41.5582584   0.9962584  -8.4752416
  41.0192584   1.4462584  -7.8242416  42.2492584   1.6232584  -8.6892416
  40.5012584   0.7832584  -5.2062416  40.8382584   1.5392584  -5.6872416
  41.0112584   0.7662584  -4.3962416  38.1852584 -21.5707416   6.3567584
  38.9702584 -21.4997416   5.8137584  38.4352584 -21.1767416   7.1927584
  37.9752584  -4.8787416  -3.4632416  37.3712584  -5.3127416  -2.8602416
  37.5002584  -4.1037416  -3.7622416  43.9322584   2.6122584  -9.3952416
  44.0322584   3.5202584  -9.1102416  44.0622584   2.6422584 -10.3432416
  40.5242584  -2.1927416  -1.1792416  39.6352584  -1.9997416  -0.8802416
  41.0882584  -1.8887416  -0.4692416  40.2992584   0.3802584 -11.2002416
  40.6122584   1.1372584 -10.7042416  39.3452584   0.4572584 -11.1792416
  44.2552584  -0.1157416 -10.1032416  44.4562584   0.6462584  -9.5592416
  43.7422584  -0.6887416  -9.5332416  40.3672584 -20.9827416 -14.8062416
  41.3222584 -20.9157416 -14.8122416  40.0712584 -20.1577416 -14.4222416
  45.1872584  -0.2437416  -4.7202416  46.0852584  -0.2337416  -4.3892416
  45.1712584   0.4362584  -5.3932416  45.4342584  -1.8407416   5.8827584
  45.2412584  -2.3807416   6.6497584  46.3892584  -1.8417416   5.8227584
  45.1592584   1.6352584   5.2197584  45.8242584   1.1352584   4.7467584
  45.1482584   2.4892584   4.7857584  44.3932584 -19.3807416   0.4167584
  44.9452584 -20.1467416   0.2597584  43.6422584 -19.7217416   0.9037584
  43.9622584   6.9072584  -5.1472416  44.5532584   7.6402584  -4.9732416
  43.1572584   7.1322584  -4.6812416  38.6472584   8.1452584  -3.4872416
  38.6262584   9.0962584  -3.3762416  39.4782584   7.9742584  -3.9302416
  44.0262584  -1.0237416  -1.4902416  44.6442584  -1.7207416  -1.7092416
  43.4682584  -1.4017416  -0.8102416  43.3262584   1.9402584   0.7197584
  43.5202584   1.7232584  -0.1922416  44.1532584   2.2762584   1.0677584
  38.8742584   6.8842584 -11.7982416  39.5432584   6.3752584 -12.2542416
  38.0892584   6.3382584 -11.8362416  40.5472584   3.1432584 -10.3142416
  40.9492584   3.9792584 -10.0792416  39.7112584   3.3832584 -10.7152416
  38.6062584   5.1892584 -18.9842416  39.3822584   5.5022584 -19.4492416
  38.4282584   4.3302584 -19.3662416  38.7052584  -2.5057416  -5.7742416
  38.0152584  -2.1207416  -6.3142416  39.1982584  -3.0627416  -6.3772416
  41.1382584   5.3012584  -1.2342416  40.9562584   5.2542584  -2.1722416
  41.6462584   6.1062584  -1.1292416  40.6342584 -15.3847416 -17.4752416
  41.1962584 -14.7177416 -17.8702416  41.1692584 -15.7667416 -16.7792416
  44.3882584   0.9092584   8.7327584  43.8012584   0.7992584   7.9847584
  45.2672584   0.8342584   8.3597584  37.3302584 -18.0067416 -13.5432416
  37.1852584 -18.9207416 -13.7852416  37.2662584 -17.9987416 -12.5882416
  42.2482584 -20.5657416   8.2367584  42.4302584 -19.7567416   7.7597584
  42.1172584 -21.2227416   7.5527584  41.9412584   4.8642584 -17.2992416
  42.0242584   4.1432584 -16.6752416  41.1212584   5.2952584 -17.0612416
  44.1882584  -5.5707416   1.3537584  43.6142584  -5.8287416   2.0757584
  44.1872584  -4.6137416   1.3777584  42.7112584  -0.7017416 -18.7462416
  41.8062584  -0.6627416 -19.0562416  43.0622584   0.1712584 -18.9202416
  41.1132584   2.1672584   8.5237584  40.9682584   1.2312584   8.3837584
  41.8002584   2.2072584   9.1887584  42.8202584   3.9662584   2.6867584
  43.3282584   4.3612584   1.9777584  42.4602584   3.1652584   2.3067584
  40.7632584  -0.5927416   8.5507584  39.8892584  -0.7057416   8.1777584
  41.3572584  -0.9047416   7.8697584  44.9942584  -3.9587416   7.5857584
  45.1442584  -3.4727416   8.3967584  45.8642584  -4.2527416   7.3167584
  45.2052584   4.0472584   9.7287584  44.5402584   4.4322584  10.2997584
  44.7622584   3.9302584   8.8887584  37.0912584   4.1262584   3.5747584
  36.9782584   3.3302584   4.0937584  38.0312584   4.1662584   3.3977584
  42.6792584  -4.5377416   6.0787584  42.5702584  -5.4447416   6.3667584
  43.5372584  -4.2807416   6.4167584  42.0622584   0.4402584 -14.8872416
  42.6772584   0.7712584 -15.5422416  42.5812584   0.3692584 -14.0852416
  38.3772584   2.3022584 -17.0982416  38.8972584   1.8062584 -17.7302416
  38.8152584   2.1562584 -16.2602416  38.4692584  -0.6447416   2.9457584
  38.7192584  -1.3127416   2.3077584  39.1552584   0.0192584   2.8797584
  44.6062584   4.6362584   0.6767584  44.6182584   5.0832584  -0.1692416
  45.4352584   4.8812584   1.0887584  39.1032584   4.4772584   7.0577584
  38.2232584   4.8152584   6.8957584  39.0032584   3.9012584   7.8157584
  44.0982584   8.0932584   5.0217584  44.5982584   7.5592584   5.6387584
  44.7302584   8.3342584   4.3447584  45.4462584 -20.2987416   8.7627584
  44.7892584 -20.1577416   9.4447584  45.3822584 -21.2327416   8.5587584
  44.4722584   4.8452584   6.9147584  43.5472584   4.7192584   6.7017584
  44.9132584   4.8602584   6.0657584  44.3332584   5.9812584  -1.6962416
  44.0222584   5.7102584  -2.5602416  43.7342584   6.6802584  -1.4342416
  45.2262584   7.6022584  -8.8432416  45.8052584   7.2802584  -8.1532416
  44.7042584   8.2832584  -8.4192416  45.6162584   7.0212584   8.4167584
  45.2902584   6.4372584   7.7317584  45.2142584   6.6942584   9.2217584
  42.6952584 -21.3897416   1.5167584  42.3452584 -20.7627416   2.1497584
  42.5572584 -22.2447416   1.9257584  37.2542584 -14.8377416  -1.7972416
  37.9722584 -14.2337416  -1.6082416  36.9112584 -14.5447416  -2.6412416
  37.6562584   1.3252584  -6.1222416  37.4062584   0.4172584  -6.2922416
  38.5532584   1.2702584  -5.7932416  42.8092584 -17.6497416  -1.4182416
  43.3232584 -18.1507416  -0.7862416  42.3032584 -18.3097416  -1.8932416
  42.6242584 -12.6407416  -6.0342416  41.7382584 -12.7217416  -5.6822416
  42.6002584 -11.8427416  -6.5632416  38.4362584   3.8162584  -8.2912416
  39.0772584   3.2332584  -8.6982416  37.6342584   3.2962584  -8.2432416
  37.7522584 -18.1287416 -17.2742416  38.0972584 -17.6237416 -18.0102416
  36.8132584 -18.1957416 -17.4482416  38.8892584  -7.0027416 -13.7262416
  38.2672584  -7.0527416 -14.4532416  38.9552584  -7.9017416 -13.4052416
  37.3672584  -9.7327416  -7.7742416  37.6342584  -9.9607416  -6.8842416
  38.0932584  -9.2127416  -8.1172416  41.9862584   4.2472584 -14.1322416
  41.5462584   5.0712584 -13.9202416  41.2732584   3.6292584 -14.2922416
  37.2242584 -15.2307416 -12.0912416  36.6462584 -15.6717416 -12.7152416
  37.9022584 -14.8287416 -12.6352416  42.6042584 -19.9267416  -5.2792416
  43.5462584 -20.0197416  -5.4262416  42.3132584 -19.3207416  -5.9602416
  45.7432584 -17.1667416   0.0477584  46.3502584 -17.4697416   0.7237584
  45.0082584 -17.7787416   0.0947584  41.3782584  -2.3047416  -3.8182416
  40.4682584  -2.1067416  -4.0392416  41.4302584  -2.1727416  -2.8722416
  39.8892584 -17.4757416   2.4907584  39.4992584 -17.9787416   1.7757584
  40.1932584 -16.6677416   2.0757584  39.8302584 -12.6387416 -10.7462416
  40.2532584 -12.4367416  -9.9112416  38.9642584 -12.2377416 -10.6792416
  39.1602584 -13.3137416  -0.9532416  40.0112584 -12.9097416  -0.7852416
  38.6022584 -13.0037416  -0.2402416  43.2592584 -18.0607416 -16.0452416
  42.9062584 -17.1967416 -15.8312416  42.5692584 -18.4797416 -16.5602416
  43.0802584 -11.2847416 -14.0162416  42.8292584 -10.7287416 -13.2782416
  43.0662584 -10.6997416 -14.7732416  41.2922584  -4.3317416   1.5237584
  40.7512584  -3.9357416   0.8407584  41.9782584  -3.6847416   1.6917584
  38.4482584 -14.7547416  -5.2172416  37.5602584 -14.8277416  -4.8702416
  38.7412584 -13.8847416  -4.9472416  38.3972584  -3.2337416 -11.2212416
  38.9802584  -3.1057416 -10.4722416  37.6072584  -3.6237416 -10.8472416
  42.3622584  -7.0467416  -3.0022416  43.0342584  -7.1287416  -2.3262416
  41.6132584  -6.6577416  -2.5512416  41.5992584 -10.6957416 -18.3322416
  40.8932584 -10.1227416 -18.0332416  42.3172584 -10.5317416 -17.7202416
  45.7072584  -2.6407416 -14.6862416  45.6382584  -3.5707416 -14.4702416
  45.0672584  -2.5087416 -15.3852416  38.1082584  -9.3677416 -15.8672416
  37.9602584  -8.7057416 -16.5422416  37.4382584 -10.0317416 -16.0312416
  38.1722584  -9.7817416 -12.9142416  37.9992584  -9.9967416 -13.8312416
  38.0312584 -10.6037416 -12.4442416  39.7962584  -5.1807416   8.2247584
  39.5622584  -5.5237416   7.3627584  40.7282584  -5.3807416   8.3177584
  38.1692584  -7.6427416   7.4157584  38.4712584  -7.5557416   8.3197584
  38.9372584  -7.9507416   6.9347584  37.8762584 -17.0847416   7.1997584
  38.0152584 -17.2307416   6.2647584  38.0702584 -16.1567416   7.3297584
  40.1102584 -11.3097416   3.5397584  39.5192584 -10.7417416   3.0447584
  40.6932584 -10.7057416   3.9997584  39.8422584 -14.4937416   3.9497584
  40.1092584 -13.6817416   3.5177584  39.2972584 -14.9417416   3.3017584
  40.4282584  -2.8677416   5.4107584  39.8032584  -3.5917416   5.4347584
  41.2762584  -3.2747416   5.5877584  42.3762584  -6.3207416   9.3507584
  42.4432584  -6.9197416   8.6077584  43.2842584  -6.1487416   9.6017584
  38.9072584 -16.8177416 -15.1532416  38.5862584 -17.2347416 -15.9532416
  38.2792584 -17.0767416 -14.4792416  43.3552584  -0.0347416   5.9987584
  43.8162584   0.7432584   5.6857584  43.9942584  -0.7427416   5.9127584
  39.7102584 -17.7747416   9.6137584  39.5332584 -16.8357416   9.6567584
  39.1982584 -18.0827416   8.8657584  39.4472584  -5.6037416   5.3317584
  38.6862584  -6.0967416   5.0267584  40.2002584  -6.1137416   5.0327584
  37.3142584 -14.3917416   5.6557584  38.1942584 -14.2577416   5.3017584
  36.8712584 -13.5537416   5.5207584  42.4712584 -10.0097416 -11.8322416
  42.0382584 -10.6427416 -11.2582416  42.7682584  -9.3167416 -11.2432416
  43.2452584 -15.5267416  -6.3902416  43.9552584 -15.6397416  -7.0222416
  43.1732584 -14.5797416  -6.2762416  37.7022584 -11.7997416  -5.4822416
  37.0202584 -11.7847416  -4.8102416  37.4182584 -12.4767416  -6.0972416
  40.3302584  -5.6567416  -1.9382416  40.4812584  -4.8297416  -1.4812416
  39.5172584  -5.5177416  -2.4242416  37.0672584 -12.3377416   8.0697584
  37.6332584 -12.0687416   7.3457584  37.6462584 -12.8167416   8.6627584
  41.1072584  -7.2497416   0.7157584  40.5172584  -6.5197416   0.9007584
  41.0632584  -7.3587416  -0.2342416  42.6542584  -7.2487416   6.7567584
  42.0442584  -7.8837416   6.3797584  43.4612584  -7.7437416   6.8937584
  43.3692584 -17.9197416   4.4807584  44.2252584 -18.1317416   4.8537584
  42.8202584 -17.7207416   5.2387584  37.8442584  -7.4417416   4.1447584
  36.9052584  -7.6177416   4.2007584  38.1742584  -8.0947416   3.5277584
  39.2472584  -9.0607416   2.2917584  39.9712584  -8.5167416   1.9827584
  38.5122584  -8.8267416   1.7257584  41.8322584 -13.3597416 -19.0192416
  41.7432584 -12.4237416 -18.8402416  42.7732584 -13.5257416 -18.9642416
  40.7722584 -16.2717416  -4.6572416  41.4802584 -15.8187416  -5.1162416
  40.0402584 -15.6547416  -4.6762416  39.6272584   7.8822584   1.9417584
  38.9602584   7.1972584   1.9237584  39.3372584   8.5172584   1.2867584
  38.9032584 -17.0067416  -2.0182416  38.4612584 -17.4527416  -2.7412416
  38.2742584 -16.3487416  -1.7222416  40.9792584 -18.4267416 -13.8392416
  41.9332584 -18.3497416 -13.8062416  40.6962584 -17.6817416 -14.3692416
  38.2262584   4.0382584  -5.4092416  37.4022584   3.6742584  -5.0872416
  38.4242584   3.5262584  -6.1932416  39.1272584   8.1222584  -0.7382416
  39.4402584   7.2182584  -0.7252416  38.7042584   8.2172584  -1.5922416
  38.3492584  -3.1047416   0.6597584  37.4642584  -2.7847416   0.4857584
  38.2282584  -4.0197416   0.9147584  39.2732584   6.7682584 -15.8722416
  38.8412584   7.2092584 -16.6032416  39.6602584   7.4782584 -15.3592416
  39.9292584   1.6762584   2.3237584  40.0822584   2.0452584   1.4547584
  39.7402584   2.4342584   2.8767584  40.2462584   5.2022584  -3.8082416
  39.6052584   4.7282584  -4.3372416  40.3092584   6.0632584  -4.2212416
  38.4012584   2.8132584   9.5957584  37.9452584   2.0232584   9.8847584
  39.3122584   2.5392584   9.4877584  38.0762584  -5.6727416   1.6157584
  38.2132584  -5.9187416   2.5307584  37.2362584  -6.0697416   1.3837584
  44.3272584   2.0642584  -1.8632416  44.1532584   2.8762584  -2.3372416
  44.6762584   1.4682584  -2.5262416  42.0062584  -0.9607416   0.9537584
  42.0922584  -0.0327416   1.1717584  42.0802584  -1.4127416   1.7937584
  40.0732584   5.8972584  -7.1132416  39.2172584   5.4722584  -7.1652416
  40.4612584   5.7642584  -7.9772416  37.3642584   4.3062584 -15.7382416
  37.7962584   3.7642584 -16.3992416  38.0372584   4.9272584 -15.4602416
  37.8162584   3.5192584   0.4457584  38.7442584   3.3022584   0.5327584
  37.7842584   4.1502584  -0.2722416  38.1142584   8.3932584  -9.4322416
  38.6122584   7.8322584 -10.0282416  37.2712584   8.5172584  -9.8682416
  37.3222584 -21.2867416 -13.2362416  37.3272584 -21.3587416 -14.1912416
  37.8672584 -22.0147416 -12.9382416  45.0392584 -16.9117416   9.4507584
  45.4142584 -16.8267416  10.3267584  44.5562584 -17.7377416   9.4747584
  37.7442584   1.4672584 -10.9942416  37.3792584   1.8722584 -11.7802416
  37.0502584   1.5452584 -10.3392416  38.6772584  -1.0527416   6.7407584
  39.1842584  -1.6817416   6.2267584  38.0712584  -0.6617416   6.1107584
  40.0362584   4.1462584   3.7687584  40.9622584   3.9312584   3.6537584
  40.0412584   5.0022584   4.1977584  40.9892584 -18.9257416 -17.8442416
  40.3522584 -18.4677416 -18.3932416  40.4622584 -19.5117416 -17.3022416
  40.3662584   8.1322584   4.4847584  40.0882584   7.9342584   3.5907584
  40.8022584   8.9822584   4.4187584  39.8972584  -0.4047416 -18.8452416
  39.0562584   0.0532584 -18.8362416  40.0832584  -0.5447416 -19.7742416
  42.2322584  -1.3057416   3.9377584  42.6262584  -0.7597416   4.6177584
  41.4262584  -1.6377416   4.3337584  39.2572584 -19.1237416   0.2597584
  39.2292584 -18.4647416  -0.4342416  38.5852584 -19.7597416   0.0147584
  38.0622584 -15.3487416 -18.4752416  38.3912584 -14.8947416 -19.2512416
  38.8062584 -15.3677416 -17.8742416  41.7562584   4.2962584   6.5937584
  40.8212584   4.4622584   6.7107584  41.8942584   3.4252584   6.9677584
  41.3142584  -7.8907416  24.3807584  41.2142584  -7.1417416  24.9677584
  41.8592584  -8.5077416  24.8687584  44.1572584   5.7082584  14.7527584
  43.4522584   5.1512584  15.0827584  44.1822584   6.4472584  15.3607584
  43.9042584  -2.8557416  32.0897584  43.5772584  -2.2007416  32.7077584
  44.8462584  -2.6927416  32.0447584  43.0722584 -14.5967416  19.3207584
  42.6072584 -15.3937416  19.0677584  43.0962584 -14.0697416  18.5217584
  37.8292584  -7.4927416  19.1557584  37.0062584  -7.1727416  18.7837584
  38.1022584  -8.1937416  18.5647584  42.8082584  -7.8797416  19.5697584
  42.9582584  -7.8487416  20.5147584  41.9472584  -7.4797416  19.4497584
  39.7262584 -14.4027416  39.4667584  40.4672584 -13.9907416  39.9127584
  40.0562584 -14.6057416  38.5917584  39.5822584  -0.7957416  14.4657584
  40.3752584  -0.2597416  14.4667584  39.8662584  -1.6457416  14.8017584
  41.6252584   7.2202584  36.8537584  42.0912584   6.5432584  36.3627584
  40.9772584   7.5612584  36.2367584  38.7822584 -13.6977416  15.7577584
  39.1062584 -14.4857416  15.3227584  39.5682584 -13.2717416  16.1007584
  41.5712584 -19.8707416  27.2577584  40.6402584 -19.7337416  27.0837584
  41.9612584 -19.9947416  26.3927584  44.0682584   5.3602584  20.3777584
  44.2852584   6.2432584  20.6757584  44.2102584   5.3842584  19.4317584
  45.5472584 -15.1817416  14.1217584  46.2112584 -14.6597416  13.6717584
  45.1812584 -14.5887416  14.7787584  44.9872584  -7.7957416  17.7117584
  44.3522584  -8.0567416  18.3787584  45.5582584  -8.5577416  17.6127584
  44.8422584  -4.2647416  23.1217584  44.3262584  -3.6717416  23.6687584
  44.8072584  -5.1047416  23.5797584  44.4012584 -13.3627416  40.4717584
  44.5532584 -12.8237416  41.2477584  45.2582584 -13.4247416  40.0507584
  41.8802584 -17.9547416  22.9667584  41.0272584 -17.6157416  22.6927584
  42.4242584 -17.1747416  23.0737584  42.1102584  -7.4857416  16.6737584
  42.4362584  -8.2847416  17.0887584  41.5892584  -7.0577416  17.3527584
  40.1932584   2.1552584  15.6127584  39.7532584   1.5652584  16.2247584
  40.9842584   1.6842584  15.3507584  43.6522584  -2.5187416  24.8307584
  42.9902584  -2.6097416  25.5157584  44.2832584  -1.8947416  25.1887584
  44.5702584   7.2462584  12.2997584  43.8742584   6.7212584  11.9047584
  44.4802584   7.0942584  13.2407584  43.2002584 -20.6857416  15.0827584
  44.0492584 -21.0947416  14.9137584  43.3542584 -19.7507416  14.9507584
  45.8562584   1.5192584  16.3467584  46.3572584   1.1372584  17.0677584
  46.4982584   1.6442584  15.6477584  39.9572584 -11.2447416  26.5587584
  39.3912584 -10.7727416  25.9477584  39.3512584 -11.6977416  27.1457584
  40.9862584 -15.6367416  29.1657584  41.7292584 -16.1717416  28.8877584
  40.2352584 -16.0117416  28.7047584  44.4582584 -16.0787416  21.3897584
  43.8432584 -15.5007416  20.9377584  44.8342584 -16.6197416  20.6957584
  41.6832584 -17.2507416  19.2307584  41.0122584 -17.8887416  19.4707584
  41.9452584 -17.4987416  18.3447584  41.1892584 -11.5337416  29.8557584
  41.8992584 -12.0767416  29.5117584  41.3292584 -10.6747416  29.4567584
  43.3912584   7.2202584  18.0117584  42.8162584   7.7562584  18.5567584
  44.1322584   7.7912584  17.8087584  44.5502584  -6.6177416  24.7257584
  43.9342584  -6.9047416  25.3997584  44.9052584  -7.4307416  24.3647584
  38.7692584 -19.7287416  22.9987584  38.8632584 -20.1677416  22.1537584
  38.9742584 -18.8117416  22.8177584  43.0712584 -10.4317416  38.9727584
  43.8782584 -10.3567416  39.4807584  42.3892584 -10.5897416  39.6257584
  41.9002584  -6.1457416  33.7477584  41.7572584  -5.6657416  32.9317584
  42.1642584  -5.4747416  34.3767584  40.1082584  -5.1107416  24.9827584
  40.7212584  -4.4607416  25.3247584  39.4382584  -5.1907416  25.6617584
  42.2592584  -9.3677416  28.7647584  43.0252584  -9.8497416  28.4527584
  41.8822584  -8.9797416  27.9747584  41.6632584 -14.5747416  31.7147584
  41.5692584 -14.8487416  30.8017584  41.6532584 -13.6187416  31.6807584
  41.5502584   3.0832584  23.7527584  42.3752584   3.5152584  23.5297584
  41.0672584   3.7342584  24.2607584  43.2792584  -6.7077416  22.0627584
  42.6602584  -6.1887416  21.5497584  43.1892584  -6.3737416  22.9557584
  45.6952584 -17.4277416  19.2317584  46.0562584 -17.1117416  18.4037584
  46.1742584 -18.2377416  19.4087584  43.0912584   4.6072584  26.4037584
  42.1702584   4.8352584  26.2787584  43.4492584   4.5612584  25.5177584
  41.3652584 -13.5257416  17.1777584  40.7932584 -13.2347416  17.8877584
  41.5162584 -12.7397416  16.6527584  40.7402584   7.6292584  25.0077584
  40.6462584   7.1652584  24.1757584  41.2712584   8.3972584  24.7957584
  44.8392584  -5.9767416  11.1807584  45.3312584  -6.6597416  11.6357584
  45.3432584  -5.1767416  11.3307584  42.9352584 -10.0157416  22.9057584
  42.7032584  -9.7967416  23.8087584  43.7782584  -9.5857416  22.7647584
  38.3932584  -3.7537416  40.0687584  39.0982584  -3.4677416  40.6487584
  38.8402584  -4.1957416  39.3477584  39.6692584  -8.1327416  22.1367584
  40.1602584  -8.2477416  22.9507584  39.5862584  -7.1837416  22.0397584
  41.2742584 -10.5937416  20.8107584  40.5512584  -9.9827416  20.9477584
  41.8802584 -10.4137416  21.5307584  39.6632584 -19.2967416  20.1057584
  39.1142584 -18.5587416  19.8387584  39.0752584 -20.0517416  20.0867584
  40.2132584  -5.4757416  22.2157584  40.1682584  -5.4057416  23.1697584
  40.3022584  -4.5717416  21.9127584  45.2382584  -3.2817416  27.8897584
  45.0062584  -3.9887416  28.4917584  45.4352584  -3.7247416  27.0647584
  45.2132584 -20.5147416  24.6827584  45.3802584 -19.7617416  24.1157584
  45.7782584 -20.3717416  25.4437584  41.0492584   6.7012584  16.7297584
  40.7262584   7.5562584  16.4447584  41.9332584   6.8732584  17.0517584
  39.3162584   0.5652584  28.4797584  40.0352584   0.2432584  27.9377584
  39.5002584   1.4972584  28.5947584  42.9962584  -5.4877416  14.9317584
  43.7882584  -5.9237416  14.6177584  42.8112584  -5.9047416  15.7737584
  43.9282584 -11.1567416  27.5317584  44.8642584 -11.3537416  27.4937584
  43.5242584 -11.9677416  27.8407584  45.3242584  -4.2437416  20.3037584
  45.3052584  -3.3257416  20.0307584  45.1902584  -4.2147416  21.2507584
  44.9212584  -8.3137416  37.3877584  44.6932584  -8.8307416  38.1607584
  45.6192584  -7.7307416  37.6847584  41.6252584 -21.5957416  19.7717584
  42.1472584 -21.2367416  20.4887584  40.9012584 -20.9777416  19.6687584
  40.3912584  -6.2787416  18.6147584  39.7932584  -6.1517416  17.8787584
  39.9192584  -6.8587416  19.2107584  43.5442584  -9.0357416  31.4217584
  42.9572584  -8.9297416  30.6727584  44.0012584  -8.1977416  31.4887584
  39.3872584 -19.1327416  25.6397584  39.1792584 -19.5507416  24.8037584
  39.9522584 -18.3957416  25.4047584  42.4822584  -4.9687416  11.8637584
  43.3912584  -5.1647416  12.0927584  42.2882584  -5.5547416  11.1327584
  43.1542584 -20.2697416  21.4587584  43.9022584 -19.6747416  21.5027584
  42.3952584 -19.7157416  21.6427584  43.2752584  -9.8097416  13.7457584
  42.4552584  -9.3167416  13.7087584  43.9132584  -9.1877416  14.0947584
  43.5752584 -17.6877416  16.8977584  44.0172584 -17.4047416  17.6977584
  43.9702584 -17.1577416  16.2047584  43.6252584 -12.3247416  20.2877584
  42.8472584 -11.7697416  20.2307584  43.3862584 -13.1227416  19.8157584
  43.0882584  -2.2167416  21.1167584  42.4252584  -1.9717416  21.7617584
  42.6162584  -2.7527416  20.4797584  45.1952584  -7.7647416  14.9067584
  45.8772584  -7.1507416  14.6357584  45.1192584  -7.6377416  15.8527584
  45.7852584  -1.5577416  22.2767584  44.8852584  -1.8827416  22.2417584
  45.6942584  -0.6107416  22.3847584  41.2312584   5.6902584  20.5727584
  42.1662584   5.4822584  20.5747584  41.1932584   6.6212584  20.3547584
  45.0172584 -11.8607416  12.5217584  45.8922584 -12.1707416  12.7537584
  44.5632584 -11.7717416  13.3597584  42.5852584 -11.7287416  32.1637584
  41.6812584 -11.4817416  32.3577584  43.0752584 -10.9087416  32.2187584
  42.5692584 -15.7147416  15.1597584  43.1312584 -14.9727416  14.9367584
  42.3202584 -15.5617416  16.0717584  40.2362584  -8.6927416  36.2287584
  40.7282584  -8.8407416  35.4217584  39.9252584  -9.5617416  36.4837584
  42.8672584   2.0542584  10.7017584  43.2882584   2.3032584  11.5247584
  43.5772584   1.6992584  10.1677584  40.2212584  -3.2977416  12.0527584
  40.3502584  -2.3497416  12.0817584  41.0662584  -3.6467416  11.7717584
  42.8572584 -13.3907416  28.8717584  43.4562584 -13.6867416  29.5577584
  42.3822584 -14.1797416  28.6117584  43.1042584 -15.3017416  33.7957584
  43.0572584 -16.2577416  33.7807584  42.4512584 -15.0187416  33.1567584
  40.7482584  -8.7837416  13.8947584  39.9152584  -9.1517416  14.1917584
  40.6552584  -7.8407416  14.0307584  40.6662584 -11.9627416  37.7667584
  40.9022584 -12.8487416  37.4927584  41.2912584 -11.7507416  38.4597584
  42.8892584 -15.0047416  38.5847584  43.4662584 -14.7817416  37.8547584
  43.4232584 -14.8587416  39.3657584  39.8292584 -12.3777416  23.2747584
  39.3182584 -11.7567416  23.7927584  39.1772584 -12.9587416  22.8847584
  42.3502584 -10.0967416  25.7377584  41.5862584 -10.5167416  26.1317584
  43.1002584 -10.5427416  26.1327584  41.5672584 -19.5307416  33.2117584
  42.2382584 -18.9787416  33.6147584  40.9472584 -18.9117416  32.8277584
  44.9952584  -5.0217416  17.6837584  44.8082584  -5.9517416  17.8087584
  45.0262584  -4.6607416  18.5697584  38.9682584 -20.9397416  39.5557584
  39.7682584 -20.4937416  39.8337584  38.3012584 -20.2527416  39.5477584
  40.2322584   6.3902584  39.1897584  40.4592584   6.1962584  38.2797584
  40.0982584   7.3372584  39.2067584  45.3522584 -10.1577416  40.1367584
  46.3002584 -10.0277416  40.1447584  45.1832584 -10.7437416  40.8747584
  44.6042584 -13.3187416  33.1587584  44.1972584 -14.1767416  33.2767584
  44.0912584 -12.9027416  32.4657584  43.1522584 -19.0797416  40.2717584
  42.5962584 -19.1517416  41.0467584  42.6682584 -19.5377416  39.5847584
  45.3822584  -4.4127416  34.2097584  46.2622584  -4.4977416  34.5757584
  45.1682584  -3.4847416  34.3107584  44.4042584 -13.5597416  16.0057584
  43.8352584 -12.8077416  16.1707584  45.1622584 -13.4167416  16.5717584
  42.0882584  -2.7127416  17.1107584  42.4852584  -1.8677416  17.3237584
  42.6022584  -3.0397416  16.3727584  38.0712584   7.5672584  11.8367584
  38.3712584   8.0792584  11.0857584  38.2312584   6.6572584  11.5867584
  44.1022584 -16.9957416  26.0907584  43.6202584 -16.4437416  25.4757584
  43.4752584 -17.1807416  26.7897584  38.8102584 -11.9047416  35.8257584
  39.5192584 -12.0287416  36.4567584  39.2462584 -11.5977416  35.0317584
  42.3082584 -17.5597416  37.4927584  41.3802584 -17.4247416  37.3017584
  42.5422584 -16.8357416  38.0727584  41.7612584  -8.8047416  33.9647584
  41.7202584  -7.8587416  34.1067584  42.0772584  -8.8977416  33.0657584
  44.4042584  -9.7507416  35.0137584  43.5632584  -9.4297416  34.6857584
  44.7532584  -9.0247416  35.5297584  37.3602584 -12.7577416  30.9907584
  37.0762584 -13.5607416  31.4267584  37.1742584 -12.0627416  31.6217584
  40.7502584 -14.3747416  36.6637584  41.5502584 -14.8937416  36.7477584
  40.6042584 -14.3107416  35.7197584  38.1842584  -7.3857416  40.2587584
  38.7322584  -6.6217416  40.0767584  38.1422584  -7.4287416  41.2137584
  38.0682584 -18.1477416  34.5797584  37.7492584 -19.0247416  34.3687584
  38.8312584 -18.0267416  34.0137584  45.1402584 -14.4687416  30.3557584
  45.1172584 -15.4247416  30.3287584  45.9802584 -14.2597416  30.7657584
  38.3152584 -15.5117416  20.2607584  37.8422584 -15.2447416  19.4727584
  39.1142584 -14.9847416  20.2517584  39.8682584  -2.7827416  21.5957584
  40.3772584  -2.2357416  22.1937584  40.2482584  -2.6127416  20.7337584
  39.3612584 -16.8887416  22.7097584  38.8852584 -16.5477416  21.9527584
  39.0372584 -16.3747416  23.4487584  42.1932584   7.9542584  28.8637584
  42.3272584   8.1032584  29.7997584  41.8082584   8.7702584  28.5437584
  40.5202584   3.0392584  29.9877584  41.3992584   2.6632584  29.9427584
  40.6102584   3.9072584  29.5947584  37.2312584  -0.0877416  15.3187584
  38.1242584  -0.4107416  15.2027584  36.6832584  -0.7287416  14.8647584
  41.8712584   0.9242584  27.2047584  42.4702584   1.6702584  27.2357584
  42.4042584   0.1782584  27.4807584  42.9912584  -0.1687416  17.3847584
  43.6472584   0.2142584  17.9667584  42.1752584  -0.1307416  17.8837584
  39.5032584  -2.7787416  16.1437584  38.8562584  -2.9397416  16.8317584
  40.3482584  -2.9137416  16.5727584  43.6892584  -2.6617416  12.9997584
  43.0972584  -2.0467416  12.5667584  43.1902584  -3.4767416  13.0547584
  43.0452584   5.8222584  40.5587584  42.4492584   5.9852584  39.8267584
  42.5552584   5.2432584  41.1427584  44.4582584   1.5232584  14.0117584
  44.7662584   2.2862584  13.5237584  44.8392584   1.6262584  14.8837584
  41.4662584  -1.4187416  23.1887584  41.0372584  -0.6097416  23.4657584
  42.2272584  -1.4957416  23.7647584  40.4402584  -6.0817416  13.8297584
  40.8292584  -5.4237416  13.2537584  40.9932584  -6.0737416  14.6107584
  41.3722584  -3.7847416  19.5487584  41.4242584  -3.4037416  18.6727584
  40.7852584  -4.5337416  19.4507584  43.8982584   3.3012584  17.6437584
  44.5072584   2.8182584  17.0857584  43.2452584   3.6532584  17.0387584
  37.9742584  -3.7877416  13.6897584  38.5682584  -3.7327416  14.4387584
  38.4992584  -3.4967416  12.9447584  44.1062584   4.4902584  23.6367584
  43.9542584   5.4262584  23.7647584  45.0542584   4.3882584  23.7207584
  37.8082584  -6.8227416  13.0527584  37.1792584  -6.1117416  13.1717584
  38.6592584  -6.4227416  13.2297584  44.8712584  -5.9287416  28.8467584
  44.5742584  -5.9597416  29.7557584  45.6482584  -6.4877416  28.8277584
  41.5582584   0.9962584  21.5247584  41.0192584   1.4462584  22.1757584
  42.2492584   1.6232584  21.3107584  40.5012584   0.7832584  24.7937584
  40.8382584   1.5392584  24.3127584  41.0112584   0.7662584  25.6037584
  38.1852584 -21.5707416  36.3567584  38.9702584 -21.4997416  35.8137584
  38.4352584 -21.1767416  37.1927584  37.9752584  -4.8787416  26.5367584
  37.3712584  -5.3127416  27.1397584  37.5002584  -4.1037416  26.2377584
  43.9322584   2.6122584  20.6047584  44.0322584   3.5202584  20.8897584
  44.0622584   2.6422584  19.6567584  40.5242584  -2.1927416  28.8207584
  39.6352584  -1.9997416  29.1197584  41.0882584  -1.8887416  29.5307584
  40.2992584   0.3802584  18.7997584  40.6122584   1.1372584  19.2957584
  39.3452584   0.4572584  18.8207584  44.2552584  -0.1157416  19.8967584
  44.4562584   0.6462584  20.4407584  43.7422584  -0.6887416  20.4667584
  40.3672584 -20.9827416  15.1937584  41.3222584 -20.9157416  15.1877584
  40.0712584 -20.1577416  15.5777584  45.1872584  -0.2437416  25.2797584
  46.0852584  -0.2337416  25.6107584  45.1712584   0.4362584  24.6067584
  45.4342584  -1.8407416  35.8827584  45.2412584  -2.3807416  36.6497584
  46.3892584  -1.8417416  35.8227584  45.1592584   1.6352584  35.2197584
  45.8242584   1.1352584  34.7467584  45.1482584   2.4892584  34.7857584
  44.3932584 -19.3807416  30.4167584  44.9452584 -20.1467416  30.2597584
  43.6422584 -19.7217416  30.9037584  43.9622584   6.9072584  24.8527584
  44.5532584   7.6402584  25.0267584  43.1572584   7.1322584  25.3187584
  38.6472584   8.1452584  26.5127584  38.6262584   9.0962584  26.6237584
  39.4782584   7.9742584  26.0697584  44.0262584  -1.0237416  28.5097584
  44.6442584  -1.7207416  28.2907584  43.4682584  -1.4017416  29.1897584
  43.3262584   1.9402584  30.7197584  43.5202584   1.7232584  29.8077584
  44.1532584   2.2762584  31.0677584  38.8742584   6.8842584  18.2017584
  39.5432584   6.3752584  17.7457584  38.0892584   6.3382584  18.1637584
  40.5472584   3.1432584  19.6857584  40.9492584   3.9792584  19.9207584
  39.7112584   3.3832584  19.2847584  38.6062584   5.1892584  11.0157584
  39.3822584   5.5022584  10.5507584  38.4282584   4.3302584  10.6337584
  38.7052584  -2.5057416  24.2257584  38.0152584  -2.1207416  23.6857584
  39.1982584  -3.0627416  23.6227584  41.1382584   5.3012584  28.7657584
  40.9562584   5.2542584  27.8277584  41.6462584   6.1062584  28.8707584
  40.6342584 -15.3847416  12.5247584  41.1962584 -14.7177416  12.1297584
  41.1692584 -15.7667416  13.2207584  44.3882584   0.9092584  38.7327584
  43.8012584   0.7992584  37.9847584  45.2672584   0.8342584  38.3597584
  37.3302584 -18.0067416  16.4567584  37.1852584 -18.9207416  16.2147584
  37.2662584 -17.9987416  17.4117584  42.2482584 -20.5657416  38.2367584
  42.4302584 -19.7567416  37.7597584  42.1172584 -21.2227416  37.5527584
  41.9412584   4.8642584  12.7007584  42.0242584   4.1432584  13.3247584
  41.1212584   5.2952584  12.9387584  44.1882584  -5.5707416  31.3537584
  43.6142584  -5.8287416  32.0757584  44.1872584  -4.6137416  31.3777584
  42.7112584  -0.7017416  11.2537584  41.8062584  -0.6627416  10.9437584
  43.0622584   0.1712584  11.0797584  41.1132584   2.1672584  38.5237584
  40.9682584   1.2312584  38.3837584  41.8002584   2.2072584  39.1887584
  42.8202584   3.9662584  32.6867584  43.3282584   4.3612584  31.9777584
  42.4602584   3.1652584  32.3067584  40.7632584  -0.5927416  38.5507584
  39.8892584  -0.7057416  38.1777584  41.3572584  -0.9047416  37.8697584
  44.9942584  -3.9587416  37.5857584  45.1442584  -3.4727416  38.3967584
  45.8642584  -4.2527416  37.3167584  45.2052584   4.0472584  39.7287584
  44.5402584   4.4322584  40.2997584  44.7622584   3.9302584  38.8887584
  37.0912584   4.1262584  33.5747584  36.9782584   3.3302584  34.0937584
  38.0312584   4.1662584  33.3977584  42.6792584  -4.5377416  36.0787584
  42.5702584  -5.4447416  36.3667584  43.5372584  -4.2807416  36.4167584
  42.0622584   0.4402584  15.1127584  42.6772584   0.7712584  14.4577584
  42.5812584   0.3692584  15.9147584  38.3772584   2.3022584  12.9017584
  38.8972584   1.8062584  12.2697584  38.8152584   2.1562584  13.7397584
  38.4692584  -0.6447416  32.9457584  38.7192584  -1.3127416  32.3077584
  39.1552584   0.0192584  32.8797584  44.6062584   4.6362584  30.6767584
  44.6182584   5.0832584  29.8307584  45.4352584   4.8812584  31.0887584
  39.1032584   4.4772584  37.0577584  38.2232584   4.8152584  36.8957584
  39.0032584   3.9012584  37.8157584  44.0982584   8.0932584  35.0217584
  44.5982584   7.5592584  35.6387584  44.7302584   8.3342584  34.3447584
  45.4462584 -20.2987416  38.7627584  44.7892584 -20.1577416  39.4447584
  45.3822584 -21.2327416  38.5587584  44.4722584   4.8452584  36.9147584
  43.5472584   4.7192584  36.7017584  44.9132584   4.8602584  36.0657584
  44.3332584   5.9812584  28.3037584  44.0222584   5.7102584  27.4397584
  43.7342584   6.6802584  28.5657584  45.2262584   7.6022584  21.1567584
  45.8052584   7.2802584  21.8467584  44.7042584   8.2832584  21.5807584
  45.6162584   7.0212584  38.4167584  45.2902584   6.4372584  37.7317584
  45.2142584   6.6942584  39.2217584  42.6952584 -21.3897416  31.5167584
  42.3452584 -20.7627416  32.1497584  42.5572584 -22.2447416  31.9257584
  37.2542584 -14.8377416  28.2027584  37.9722584 -14.2337416  28.3917584
  36.9112584 -14.5447416  27.3587584  37.6562584   1.3252584  23.8777584
  37.4062584   0.4172584  23.7077584  38.5532584   1.2702584  24.2067584
  42.6242584 -12.6407416  23.9657584  41.7382584 -12.7217416  24.3177584
  42.6002584 -11.8427416  23.4367584  38.4362584   3.8162584  21.7087584
  39.0772584   3.2332584  21.3017584  37.6342584   3.2962584  21.7567584
  37.7522584 -18.1287416  12.7257584  38.0972584 -17.6237416  11.9897584
  36.8132584 -18.1957416  12.5517584  38.8892584  -7.0027416  16.2737584
  38.2672584  -7.0527416  15.5467584  38.9552584  -7.9017416  16.5947584
  41.9862584   4.2472584  15.8677584  41.5462584   5.0712584  16.0797584
  41.2732584   3.6292584  15.7077584  37.2242584 -15.2307416  17.9087584
  36.6462584 -15.6717416  17.2847584  37.9022584 -14.8287416  17.3647584
  42.6042584 -19.9267416  24.7207584  43.5462584 -20.0197416  24.5737584
  42.3132584 -19.3207416  24.0397584  45.7432584 -17.1667416  30.0477584
  46.3502584 -17.4697416  30.7237584  45.0082584 -17.7787416  30.0947584
  41.3782584  -2.3047416  26.1817584  40.4682584  -2.1067416  25.9607584
  41.4302584  -2.1727416  27.1277584  39.8892584 -17.4757416  32.4907584
  39.4992584 -17.9787416  31.7757584  40.1932584 -16.6677416  32.0757584
  39.8302584 -12.6387416  19.2537584  40.2532584 -12.4367416  20.0887584
  38.9642584 -12.2377416  19.3207584  39.1602584 -13.3137416  29.0467584
  40.0112584 -12.9097416  29.2147584  38.6022584 -13.0037416  29.7597584
  43.2592584 -18.0607416  13.9547584  42.9062584 -17.1967416  14.1687584
  42.5692584 -18.4797416  13.4397584  43.0802584 -11.2847416  15.9837584
  42.8292584 -10.7287416  16.7217584  43.0662584 -10.6997416  15.2267584
  41.2922584  -4.3317416  31.5237584  40.7512584  -3.9357416  30.8407584
  41.9782584  -3.6847416  31.6917584  38.4482584 -14.7547416  24.7827584
  37.5602584 -14.8277416  25.1297584  38.7412584 -13.8847416  25.0527584
  38.3972584  -3.2337416  18.7787584  38.9802584  -3.1057416  19.5277584
  37.6072584  -3.6237416  19.1527584  42.3622584  -7.0467416  26.9977584
  43.0342584  -7.1287416  27.6737584  41.6132584  -6.6577416  27.4487584
  41.5992584 -10.6957416  11.6677584  40.8932584 -10.1227416  11.9667584
  42.3172584 -10.5317416  12.2797584  45.7072584  -2.6407416  15.3137584
  45.6382584  -3.5707416  15.5297584  45.0672584  -2.5087416  14.6147584
  38.1082584  -9.3677416  14.1327584  37.9602584  -8.7057416  13.4577584
  37.4382584 -10.0317416  13.9687584  38.1722584  -9.7817416  17.0857584
  37.9992584  -9.9967416  16.1687584  38.0312584 -10.6037416  17.5557584
  39.7962584  -5.1807416  38.2247584  39.5622584  -5.5237416  37.3627584
  40.7282584  -5.3807416  38.3177584  38.1692584  -7.6427416  37.4157584
  38.4712584  -7.5557416  38.3197584  38.9372584  -7.9507416  36.9347584
  37.8762584 -17.0847416  37.1997584  38.0152584 -17.2307416  36.2647584
  38.0702584 -16.1567416  37.3297584  40.1102584 -11.3097416  33.5397584
  39.5192584 -10.7417416  33.0447584  40.6932584 -10.7057416  33.9997584
  39.8422584 -14.4937416  33.9497584  40.1092584 -13.6817416  33.5177584
  39.2972584 -14.9417416  33.3017584  40.4282584  -2.8677416  35.4107584
  39.8032584  -3.5917416  35.4347584  41.2762584  -3.2747416  35.5877584
  42.3762584  -6.3207416  39.3507584  42.4432584  -6.9197416  38.6077584
  43.2842584  -6.1487416  39.6017584  38.9072584 -16.8177416  14.8467584
  38.5862584 -17.2347416  14.0467584  38.2792584 -17.0767416  15.5207584
  43.3552584  -0.0347416  35.9987584  43.8162584   0.7432584  35.6857584
  43.9942584  -0.7427416  35.9127584  39.7102584 -17.7747416  39.6137584
  39.5332584 -16.8357416  39.6567584  39.1982584 -18.0827416  38.8657584
  39.4472584  -5.6037416  35.3317584  38.6862584  -6.0967416  35.0267584
  40.2002584  -6.1137416  35.0327584  37.3142584 -14.3917416  35.6557584
  38.1942584 -14.2577416  35.3017584  36.8712584 -13.5537416  35.5207584
  42.4712584 -10.0097416  18.1677584  42.0382584 -10.6427416  18.7417584
  42.7682584  -9.3167416  18.7567584  43.2452584 -15.5267416  23.6097584
  43.9552584 -15.6397416  22.9777584  43.1732584 -14.5797416  23.7237584
  37.7022584 -11.7997416  24.5177584  37.0202584 -11.7847416  25.1897584
  37.4182584 -12.4767416  23.9027584  40.3302584  -5.6567416  28.0617584
  40.4812584  -4.8297416  28.5187584  39.5172584  -5.5177416  27.5757584
  37.0672584 -12.3377416  38.0697584  37.6332584 -12.0687416  37.3457584
  37.6462584 -12.8167416  38.6627584  41.1072584  -7.2497416  30.7157584
  40.5172584  -6.5197416  30.9007584  41.0632584  -7.3587416  29.7657584
  42.6542584  -7.2487416  36.7567584  42.0442584  -7.8837416  36.3797584
  43.4612584  -7.7437416  36.8937584  43.3692584 -17.9197416  34.4807584
  44.2252584 -18.1317416  34.8537584  42.8202584 -17.7207416  35.2387584
  37.8442584  -7.4417416  34.1447584  36.9052584  -7.6177416  34.2007584
  38.1742584  -8.0947416  33.5277584  39.2472584  -9.0607416  32.2917584
  39.9712584  -8.5167416  31.9827584  38.5122584  -8.8267416  31.7257584
  41.8322584 -13.3597416  10.9807584  41.7432584 -12.4237416  11.1597584
  42.7732584 -13.5257416  11.0357584  40.7722584 -16.2717416  25.3427584
  41.4802584 -15.8187416  24.8837584  40.0402584 -15.6547416  25.3237584
  39.6272584   7.8822584  31.9417584  38.9602584   7.1972584  31.9237584
  39.3372584   8.5172584  31.2867584  38.9032584 -17.0067416  27.9817584
  38.4612584 -17.4527416  27.2587584  38.2742584 -16.3487416  28.2777584
  40.9792584 -18.4267416  16.1607584  41.9332584 -18.3497416  16.1937584
  40.6962584 -17.6817416  15.6307584  38.2262584   4.0382584  24.5907584
  37.4022584   3.6742584  24.9127584  38.4242584   3.5262584  23.8067584
  39.1272584   8.1222584  29.2617584  39.4402584   7.2182584  29.2747584
  38.7042584   8.2172584  28.4077584  38.3492584  -3.1047416  30.6597584
  37.4642584  -2.7847416  30.4857584  38.2282584  -4.0197416  30.9147584
  39.2732584   6.7682584  14.1277584  38.8412584   7.2092584  13.3967584
  39.6602584   7.4782584  14.6407584  39.9292584   1.6762584  32.3237584
  40.0822584   2.0452584  31.4547584  39.7402584   2.4342584  32.8767584
  40.2462584   5.2022584  26.1917584  39.6052584   4.7282584  25.6627584
  40.3092584   6.0632584  25.7787584  38.4012584   2.8132584  39.5957584
  37.9452584   2.0232584  39.8847584  39.3122584   2.5392584  39.4877584
  38.0762584  -5.6727416  31.6157584  38.2132584  -5.9187416  32.5307584
  37.2362584  -6.0697416  31.3837584  44.3272584   2.0642584  28.1367584
  44.1532584   2.8762584  27.6627584  44.6762584   1.4682584  27.4737584
  42.0062584  -0.9607416  30.9537584  42.0922584  -0.0327416  31.1717584
  42.0802584  -1.4127416  31.7937584  40.0732584   5.8972584  22.8867584
  39.2172584   5.4722584  22.8347584  40.4612584   5.7642584  22.0227584
  37.3642584   4.3062584  14.2617584  37.7962584   3.7642584  13.6007584
  38.0372584   4.9272584  14.5397584  37.8162584   3.5192584  30.4457584
  38.7442584   3.3022584  30.5327584  37.7842584   4.1502584  29.7277584
  38.1142584   8.3932584  20.5677584  38.6122584   7.8322584  19.9717584
  37.2712584   8.5172584  20.1317584  37.3222584 -21.2867416  16.7637584
  37.3272584 -21.3587416  15.8087584  37.8672584 -22.0147416  17.0617584
  45.0392584 -16.9117416  39.4507584  45.4142584 -16.8267416  40.3267584
  44.5562584 -17.7377416  39.4747584  37.7442584   1.4672584  19.0057584
  37.3792584   1.8722584  18.2197584  37.0502584   1.5452584  19.6607584
  38.6772584  -1.0527416  36.7407584  39.1842584  -1.6817416  36.2267584
  38.0712584  -0.6617416  36.1107584  40.0362584   4.1462584  33.7687584
  40.9622584   3.9312584  33.6537584  40.0412584   5.0022584  34.1977584
  40.9892584 -18.9257416  12.1557584  40.3522584 -18.4677416  11.6067584
  40.4622584 -19.5117416  12.6977584  40.3662584   8.1322584  34.4847584
  40.0882584   7.9342584  33.5907584  40.8022584   8.9822584  34.4187584
  39.8972584  -0.4047416  11.1547584  39.0562584   0.0532584  11.1637584
  40.0832584  -0.5447416  10.2257584  42.2322584  -1.3057416  33.9377584
  42.6262584  -0.7597416  34.6177584  41.4262584  -1.6377416  34.3337584
  39.2572584 -19.1237416  30.2597584  39.2292584 -18.4647416  29.5657584
  38.5852584 -19.7597416  30.0147584  38.0622584 -15.3487416  11.5247584
  38.3912584 -14.8947416  10.7487584  38.8062584 -15.3677416  12.1257584
  41.7562584   4.2962584  36.5937584  40.8212584   4.4622584  36.7107584
  41.8942584   3.4252584  36.9677584  44.1572584   5.7082584  44.7527584
  43.4522584   5.1512584  45.0827584  44.1822584   6.4472584  45.3607584
  37.8292584  -7.4927416  49.1557584  37.0062584  -7.1727416  48.7837584
  38.1022584  -8.1937416  48.5647584  39.5822584  -0.7957416  44.4657584
  40.3752584  -0.2597416  44.4667584  39.8662584  -1.6457416  44.8017584
  38.7822584 -13.6977416  45.7577584  39.1062584 -14.4857416  45.3227584
  39.5682584 -13.2717416  46.1007584  45.5472584 -15.1817416  44.1217584
  46.2112584 -14.6597416  43.6717584  45.1812584 -14.5887416  44.7787584
  44.9872584  -7.7957416  47.7117584  44.3522584  -8.0567416  48.3787584
  45.5582584  -8.5577416  47.6127584  42.1102584  -7.4857416  46.6737584
  42.4362584  -8.2847416  47.0887584  41.5892584  -7.0577416  47.3527584
  40.1932584   2.1552584  45.6127584  39.7532584   1.5652584  46.2247584
  40.9842584   1.6842584  45.3507584  44.5702584   7.2462584  42.2997584
  43.8742584   6.7212584  41.9047584  44.4802584   7.0942584  43.2407584
  43.2002584 -20.6857416  45.0827584  44.0492584 -21.0947416  44.9137584
  43.3542584 -19.7507416  44.9507584  45.8562584   1.5192584  46.3467584
  46.3572584   1.1372584  47.0677584  46.4982584   1.6442584  45.6477584
  41.6832584 -17.2507416  49.2307584  41.0122584 -17.8887416  49.4707584
  41.9452584 -17.4987416  48.3447584  43.3912584   7.2202584  48.0117584
  42.8162584   7.7562584  48.5567584  44.1322584   7.7912584  47.8087584
  45.6952584 -17.4277416  49.2317584  46.0562584 -17.1117416  48.4037584
  46.1742584 -18.2377416  49.4087584  41.3652584 -13.5257416  47.1777584
  40.7932584 -13.2347416  47.8877584  41.5162584 -12.7397416  46.6527584
  44.8392584  -5.9767416  41.1807584  45.3312584  -6.6597416  41.6357584
  45.3432584  -5.1767416  41.3307584  41.0492584   6.7012584  46.7297584
  40.7262584   7.5562584  46.4447584  41.9332584   6.8732584  47.0517584
  42.9962584  -5.4877416  44.9317584  43.7882584  -5.9237416  44.6177584
  42.8112584  -5.9047416  45.7737584  40.3912584  -6.2787416  48.6147584
  39.7932584  -6.1517416  47.8787584  39.9192584  -6.8587416  49.2107584
  42.4822584  -4.9687416  41.8637584  43.3912584  -5.1647416  42.0927584
  42.2882584  -5.5547416  41.1327584  43.2752584  -9.8097416  43.7457584
  42.4552584  -9.3167416  43.7087584  43.9132584  -9.1877416  44.0947584
  43.5752584 -17.6877416  46.8977584  44.0172584 -17.4047416  47.6977584
  43.9702584 -17.1577416  46.2047584  45.1952584  -7.7647416  44.9067584
  45.8772584  -7.1507416  44.6357584  45.1192584  -7.6377416  45.8527584
  45.0172584 -11.8607416  42.5217584  45.8922584 -12.1707416  42.7537584
  44.5632584 -11.7717416  43.3597584  42.5692584 -15.7147416  45.1597584
  43.1312584 -14.9727416  44.9367584  42.3202584 -15.5617416  46.0717584
  42.8672584   2.0542584  40.7017584  43.2882584   2.3032584  41.5247584
  43.5772584   1.6992584  40.1677584  40.2212584  -3.2977416  42.0527584
  40.3502584  -2.3497416  42.0817584  41.0662584  -3.6467416  41.7717584
  40.7482584  -8.7837416  43.8947584  39.9152584  -9.1517416  44.1917584
  40.6552584  -7.8407416  44.0307584  44.9952584  -5.0217416  47.6837584
  44.8082584  -5.9517416  47.8087584  45.0262584  -4.6607416  48.5697584
  44.4042584 -13.5597416  46.0057584  43.8352584 -12.8077416  46.1707584
  45.1622584 -13.4167416  46.5717584  42.0882584  -2.7127416  47.1107584
  42.4852584  -1.8677416  47.3237584  42.6022584  -3.0397416  46.3727584
  38.0712584   7.5672584  41.8367584  38.3712584   8.0792584  41.0857584
  38.2312584   6.6572584  41.5867584  37.2312584  -0.0877416  45.3187584
  38.1242584  -0.4107416  45.2027584  36.6832584  -0.7287416  44.8647584
  42.9912584  -0.1687416  47.3847584  43.6472584   0.2142584  47.9667584
  42.1752584  -0.1307416  47.8837584  39.5032584  -2.7787416  46.1437584
  38.8562584  -2.9397416  46.8317584  40.3482584  -2.9137416  46.5727584
  43.6892584  -2.6617416  42.9997584  43.0972584  -2.0467416  42.5667584
  43.1902584  -3.4767416  43.0547584  44.4582584   1.5232584  44.0117584
  44.7662584   2.2862584  43.5237584  44.8392584   1.6262584  44.8837584
  40.4402584  -6.0817416  43.8297584  40.8292584  -5.4237416  43.2537584
  40.9932584  -6.0737416  44.6107584  43.8982584   3.3012584  47.6437584
  44.5072584   2.8182584  47.0857584  43.2452584   3.6532584  47.0387584
  37.9742584  -3.7877416  43.6897584  38.5682584  -3.7327416  44.4387584
  38.4992584  -3.4967416  42.9447584  37.8082584  -6.8227416  43.0527584
  37.1792584  -6.1117416  43.1717584  38.6592584  -6.4227416  43.2297584
  40.3672584 -20.9827416  45.1937584  41.3222584 -20.9157416  45.1877584
  40.0712584 -20.1577416  45.5777584  38.8742584   6.8842584  48.2017584
  39.5432584   6.3752584  47.7457584  38.0892584   6.3382584  48.1637584
  38.6062584   5.1892584  41.0157584  39.3822584   5.5022584  40.5507584
  38.4282584   4.3302584  40.6337584  40.6342584 -15.3847416  42.5247584
  41.1962584 -14.7177416  42.1297584  41.1692584 -15.7667416  43.2207584
  37.3302584 -18.0067416  46.4567584  37.1852584 -18.9207416  46.2147584
  37.2662584 -17.9987416  47.4117584  41.9412584   4.8642584  42.7007584
  42.0242584   4.1432584  43.3247584  41.1212584   5.2952584  42.9387584
  42.7112584  -0.7017416  41.2537584  41.8062584  -0.6627416  40.9437584
  43.0622584   0.1712584  41.0797584  42.0622584   0.4402584  45.1127584
  42.6772584   0.7712584  44.4577584  42.5812584   0.3692584  45.9147584
  38.3772584   2.3022584  42.9017584  38.8972584   1.8062584  42.2697584
  38.8152584   2.1562584  43.7397584  37.7522584 -18.1287416  42.7257584
  38.0972584 -17.6237416  41.9897584  36.8132584 -18.1957416  42.5517584
  38.8892584  -7.0027416  46.2737584  38.2672584  -7.0527416  45.5467584
  38.9552584  -7.9017416  46.5947584  41.9862584   4.2472584  45.8677584
  41.5462584   5.0712584  46.0797584  41.2732584   3.6292584  45.7077584
  37.2242584 -15.2307416  47.9087584  36.6462584 -15.6717416  47.2847584
  37.9022584 -14.8287416  47.3647584  39.8302584 -12.6387416  49.2537584
  40.2532584 -12.4367416  50.0887584  38.9642584 -12.2377416  49.3207584
  43.2592584 -18.0607416  43.9547584  42.9062584 -17.1967416  44.1687584
  42.5692584 -18.4797416  43.4397584  43.0802584 -11.2847416  45.9837584
  42.8292584 -10.7287416  46.7217584  43.0662584 -10.6997416  45.2267584
  38.3972584  -3.2337416  48.7787584  38.9802584  -3.1057416  49.5277584
  37.6072584  -3.6237416  49.1527584  41.5992584 -10.6957416  41.6677584
  40.8932584 -10.1227416  41.9667584  42.3172584 -10.5317416  42.2797584
  45.7072584  -2.6407416  45.3137584  45.6382584  -3.5707416  45.5297584
  45.0672584  -2.5087416  44.6147584  38.1082584  -9.3677416  44.1327584
  37.9602584  -8.7057416  43.4577584  37.4382584 -10.0317416  43.9687584
  38.1722584  -9.7817416  47.0857584  37.9992584  -9.9967416  46.1687584
  38.0312584 -10.6037416  47.5557584  38.9072584 -16.8177416  44.8467584
  38.5862584 -17.2347416  44.0467584  38.2792584 -17.0767416  45.5207584
  42.4712584 -10.0097416  48.1677584  42.0382584 -10.6427416  48.7417584
  42.7682584  -9.3167416  48.7567584  41.8322584 -13.3597416  40.9807584
  41.7432584 -12.4237416  41.1597584  42.7732584 -13.5257416  41.0357584
  40.9792584 -18.4267416  46.1607584  41.9332584 -18.3497416  46.1937584
  40.6962584 -17.6817416  45.6307584  39.2732584   6.7682584  44.1277584
  38.8412584   7.2092584  43.3967584  39.6602584   7.4782584  44.6407584
  37.3642584   4.3062584  44.2617584  37.7962584   3.7642584  43.6007584
  38.0372584   4.9272584  44.5397584  37.3222584 -21.2867416  46.7637584
  37.3272584 -21.3587416  45.8087584  37.8672584 -22.0147416  47.0617584
  37.7442584   1.4672584  49.0057584  37.3792584   1.8722584  48.2197584
  37.0502584   1.5452584  49.6607584  40.9892584 -18.9257416  42.1557584
  40.3522584 -18.4677416  41.6067584  40.4622584 -19.5117416  42.6977584
  39.8972584  -0.4047416  41.1547584  39.0562584   0.0532584  41.1637584
  40.0832584  -0.5447416  40.2257584  38.0622584 -15.3487416  41.5247584
  38.3912584 -14.8947416  40.7487584  38.8062584 -15.3677416  42.1257584
  41.3142584  22.1092584  -5.6192416  41.2142584  22.8582584  -5.0322416
  41.8592584  21.4922584  -5.1312416  44.1572584  35.7082584 -15.2472416
  43.4522584  35.1512584 -14.9172416  44.1822584  36.4472584 -14.6392416
  43.9042584  27.1442584   2.0897584  43.5772584  27.7992584   2.7077584
  44.8462584  27.3072584   2.0447584  43.0722584  15.4032584 -10.6792416
  42.6072584  14.6062584 -10.9322416  43.0962584  15.9302584 -11.4782416
  37.8292584  22.5072584 -10.8442416  37.0062584  22.8272584 -11.2162416
  38.1022584  21.8062584 -11.4352416  42.8082584  22.1202584 -10.4302416
  42.9582584  22.1512584  -9.4852416  41.9472584  22.5202584 -10.5502416
  39.7262584  15.5972584   9.4667584  40.4672584  16.0092584   9.9127584
  40.0562584  15.3942584   8.5917584  39.5822584  29.2042584 -15.5342416
  40.3752584  29.7402584 -15.5332416  39.8662584  28.3542584 -15.1982416
  41.6252584  37.2202584   6.8537584  42.0912584  36.5432584   6.3627584
  40.9772584  37.5612584   6.2367584  38.7822584  16.3022584 -14.2422416
  39.1062584  15.5142584 -14.6772416  39.5682584  16.7282584 -13.8992416
  41.5712584  10.1292584  -2.7422416  40.6402584  10.2662584  -2.9162416
  41.9612584  10.0052584  -3.6072416  44.0682584  35.3602584  -9.6222416
  44.2852584  36.2432584  -9.3242416  44.2102584  35.3842584 -10.5682416
  45.5472584  14.8182584 -15.8782416  46.2112584  15.3402584 -16.3282416
  45.1812584  15.4112584 -15.2212416  44.9872584  22.2042584 -12.2882416
  44.3522584  21.9432584 -11.6212416  45.5582584  21.4422584 -12.3872416
  44.8422584  25.7352584  -6.8782416  44.3262584  26.3282584  -6.3312416
  44.8072584  24.8952584  -6.4202416  44.4012584  16.6372584  10.4717584
  44.5532584  17.1762584  11.2477584  45.2582584  16.5752584  10.0507584
  41.8802584  12.0452584  -7.0332416  41.0272584  12.3842584  -7.3072416
  42.4242584  12.8252584  -6.9262416  42.1102584  22.5142584 -13.3262416
  42.4362584  21.7152584 -12.9112416  41.5892584  22.9422584 -12.6472416
  40.1932584  32.1552584 -14.3872416  39.7532584  31.5652584 -13.7752416
  40.9842584  31.6842584 -14.6492416  43.6522584  27.4812584  -5.1692416
  42.9902584  27.3902584  -4.4842416  44.2832584  28.1052584  -4.8112416
  44.5702584  37.2462584 -17.7002416  43.8742584  36.7212584 -18.0952416
  44.4802584  37.0942584 -16.7592416  43.2002584   9.3142584 -14.9172416
  44.0492584   8.9052584 -15.0862416  43.3542584  10.2492584 -15.0492416
  45.8562584  31.5192584 -13.6532416  46.3572584  31.1372584 -12.9322416
  46.4982584  31.6442584 -14.3522416  39.9572584  18.7552584  -3.4412416
  39.3912584  19.2272584  -4.0522416  39.3512584  18.3022584  -2.8542416
  40.9862584  14.3632584  -0.8342416  41.7292584  13.8282584  -1.1122416
  40.2352584  13.9882584  -1.2952416  44.4582584  13.9212584  -8.6102416
  43.8432584  14.4992584  -9.0622416  44.8342584  13.3802584  -9.3042416
  41.6832584  12.7492584 -10.7692416  41.0122584  12.1112584 -10.5292416
  41.9452584  12.5012584 -11.6552416  41.1892584  18.4662584  -0.1442416
  41.8992584  17.9232584  -0.4882416  41.3292584  19.3252584  -0.5432416
  43.3912584  37.2202584 -11.9882416  42.8162584  37.7562584 -11.4432416
  44.1322584  37.7912584 -12.1912416  44.5502584  23.3822584  -5.2742416
  43.9342584  23.0952584  -4.6002416  44.9052584  22.5692584  -5.6352416
  38.7692584  10.2712584  -7.0012416  38.8632584   9.8322584  -7.8462416
  38.9742584  11.1882584  -7.1822416  43.0712584  19.5682584   8.9727584
  43.8782584  19.6432584   9.4807584  42.3892584  19.4102584   9.6257584
  41.9002584  23.8542584   3.7477584  41.7572584  24.3342584   2.9317584
  42.1642584  24.5252584   4.3767584  40.1082584  24.8892584  -5.0172416
  40.7212584  25.5392584  -4.6752416  39.4382584  24.8092584  -4.3382416
  42.2592584  20.6322584  -1.2352416  43.0252584  20.1502584  -1.5472416
  41.8822584  21.0202584  -2.0252416  41.6632584  15.4252584   1.7147584
  41.5692584  15.1512584   0.8017584  41.6532584  16.3812584   1.6807584
  41.5502584  33.0832584  -6.2472416  42.3752584  33.5152584  -6.4702416
  41.0672584  33.7342584  -5.7392416  43.2792584  23.2922584  -7.9372416
  42.6602584  23.8112584  -8.4502416  43.1892584  23.6262584  -7.0442416
  45.6952584  12.5722584 -10.7682416  46.0562584  12.8882584 -11.5962416
  46.1742584  11.7622584 -10.5912416  43.0912584  34.6072584  -3.5962416
  42.1702584  34.8352584  -3.7212416  43.4492584  34.5612584  -4.4822416
  41.3652584  16.4742584 -12.8222416  40.7932584  16.7652584 -12.1122416
  41.5162584  17.2602584 -13.3472416  40.7402584  37.6292584  -4.9922416
  40.6462584  37.1652584  -5.8242416  41.2712584  38.3972584  -5.2042416
  44.8392584  24.0232584 -18.8192416  45.3312584  23.3402584 -18.3642416
  45.3432584  24.8232584 -18.6692416  42.9352584  19.9842584  -7.0942416
  42.7032584  20.2032584  -6.1912416  43.7782584  20.4142584  -7.2352416
  38.3932584  26.2462584  10.0687584  39.0982584  26.5322584  10.6487584
  38.8402584  25.8042584   9.3477584  39.6692584  21.8672584  -7.8632416
  40.1602584  21.7522584  -7.0492416  39.5862584  22.8162584  -7.9602416
  41.2742584  19.4062584  -9.1892416  40.5512584  20.0172584  -9.0522416
  41.8802584  19.5862584  -8.4692416  39.6632584  10.7032584  -9.8942416
  39.1142584  11.4412584 -10.1612416  39.0752584   9.9482584  -9.9132416
  40.2132584  24.5242584  -7.7842416  40.1682584  24.5942584  -6.8302416
  40.3022584  25.4282584  -8.0872416  45.2382584  26.7182584  -2.1102416
  45.0062584  26.0112584  -1.5082416  45.4352584  26.2752584  -2.9352416
  45.2132584   9.4852584  -5.3172416  45.3802584  10.2382584  -5.8842416
  45.7782584   9.6282584  -4.5562416  41.0492584  36.7012584 -13.2702416
  40.7262584  37.5562584 -13.5552416  41.9332584  36.8732584 -12.9482416
  39.3162584  30.5652584  -1.5202416  40.0352584  30.2432584  -2.0622416
  39.5002584  31.4972584  -1.4052416  42.9962584  24.5122584 -15.0682416
  43.7882584  24.0762584 -15.3822416  42.8112584  24.0952584 -14.2262416
  43.9282584  18.8432584  -2.4682416  44.8642584  18.6462584  -2.5062416
  43.5242584  18.0322584  -2.1592416  45.3242584  25.7562584  -9.6962416
  45.3052584  26.6742584  -9.9692416  45.1902584  25.7852584  -8.7492416
  44.9212584  21.6862584   7.3877584  44.6932584  21.1692584   8.1607584
  45.6192584  22.2692584   7.6847584  41.6252584   8.4042584 -10.2282416
  42.1472584   8.7632584  -9.5112416  40.9012584   9.0222584 -10.3312416
  40.3912584  23.7212584 -11.3852416  39.7932584  23.8482584 -12.1212416
  39.9192584  23.1412584 -10.7892416  43.5442584  20.9642584   1.4217584
  42.9572584  21.0702584   0.6727584  44.0012584  21.8022584   1.4887584
  39.3872584  10.8672584  -4.3602416  39.1792584  10.4492584  -5.1962416
  39.9522584  11.6042584  -4.5952416  42.4822584  25.0312584 -18.1362416
  43.3912584  24.8352584 -17.9072416  42.2882584  24.4452584 -18.8672416
  43.1542584   9.7302584  -8.5412416  43.9022584  10.3252584  -8.4972416
  42.3952584  10.2842584  -8.3572416  43.2752584  20.1902584 -16.2542416
  42.4552584  20.6832584 -16.2912416  43.9132584  20.8122584 -15.9052416
  43.5752584  12.3122584 -13.1022416  44.0172584  12.5952584 -12.3022416
  43.9702584  12.8422584 -13.7952416  43.6252584  17.6752584  -9.7122416
  42.8472584  18.2302584  -9.7692416  43.3862584  16.8772584 -10.1842416
  43.0882584  27.7832584  -8.8832416  42.4252584  28.0282584  -8.2382416
  42.6162584  27.2472584  -9.5202416  45.1952584  22.2352584 -15.0932416
  45.8772584  22.8492584 -15.3642416  45.1192584  22.3622584 -14.1472416
  45.7852584  28.4422584  -7.7232416  44.8852584  28.1172584  -7.7582416
  45.6942584  29.3892584  -7.6152416  41.2312584  35.6902584  -9.4272416
  42.1662584  35.4822584  -9.4252416  41.1932584  36.6212584  -9.6452416
  45.0172584  18.1392584 -17.4782416  45.8922584  17.8292584 -17.2462416
  44.5632584  18.2282584 -16.6402416  42.5852584  18.2712584   2.1637584
  41.6812584  18.5182584   2.3577584  43.0752584  19.0912584   2.2187584
  42.5692584  14.2852584 -14.8402416  43.1312584  15.0272584 -15.0632416
  42.3202584  14.4382584 -13.9282416  40.2362584  21.3072584   6.2287584
  40.7282584  21.1592584   5.4217584  39.9252584  20.4382584   6.4837584
  42.8672584  32.0542584 -19.2982416  43.2882584  32.3032584 -18.4752416
  43.5772584  31.6992584 -19.8322416  40.2212584  26.7022584 -17.9472416
  40.3502584  27.6502584 -17.9182416  41.0662584  26.3532584 -18.2282416
  42.8572584  16.6092584  -1.1282416  43.4562584  16.3132584  -0.4422416
  42.3822584  15.8202584  -1.3882416  43.1042584  14.6982584   3.7957584
  43.0572584  13.7422584   3.7807584  42.4512584  14.9812584   3.1567584
  40.7482584  21.2162584 -16.1052416  39.9152584  20.8482584 -15.8082416
  40.6552584  22.1592584 -15.9692416  40.6662584  18.0372584   7.7667584
  40.9022584  17.1512584   7.4927584  41.2912584  18.2492584   8.4597584
  42.8892584  14.9952584   8.5847584  43.4662584  15.2182584   7.8547584
  43.4232584  15.1412584   9.3657584  39.8292584  17.6222584  -6.7252416
  39.3182584  18.2432584  -6.2072416  39.1772584  17.0412584  -7.1152416
  42.3502584  19.9032584  -4.2622416  41.5862584  19.4832584  -3.8682416
  43.1002584  19.4572584  -3.8672416  41.5672584  10.4692584   3.2117584
  42.2382584  11.0212584   3.6147584  40.9472584  11.0882584   2.8277584
  44.9952584  24.9782584 -12.3162416  44.8082584  24.0482584 -12.1912416
  45.0262584  25.3392584 -11.4302416  38.9682584   9.0602584   9.5557584
  39.7682584   9.5062584   9.8337584  38.3012584   9.7472584   9.5477584
  40.2322584  36.3902584   9.1897584  40.4592584  36.1962584   8.2797584
  40.0982584  37.3372584   9.2067584  45.3522584  19.8422584  10.1367584
  46.3002584  19.9722584  10.1447584  45.1832584  19.2562584  10.8747584
  44.6042584  16.6812584   3.1587584  44.1972584  15.8232584   3.2767584
  44.0912584  17.0972584   2.4657584  43.1522584  10.9202584  10.2717584
  42.5962584  10.8482584  11.0467584  42.6682584  10.4622584   9.5847584
  45.3822584  25.5872584   4.2097584  46.2622584  25.5022584   4.5757584
  45.1682584  26.5152584   4.3107584  44.4042584  16.4402584 -13.9942416
  43.8352584  17.1922584 -13.8292416  45.1622584  16.5832584 -13.4282416
  42.0882584  27.2872584 -12.8892416  42.4852584  28.1322584 -12.6762416
  42.6022584  26.9602584 -13.6272416  38.0712584  37.5672584 -18.1632416
  38.3712584  38.0792584 -18.9142416  38.2312584  36.6572584 -18.4132416
  44.1022584  13.0042584  -3.9092416  43.6202584  13.5562584  -4.5242416
  43.4752584  12.8192584  -3.2102416  38.8102584  18.0952584   5.8257584
  39.5192584  17.9712584   6.4567584  39.2462584  18.4022584   5.0317584
  42.3082584  12.4402584   7.4927584  41.3802584  12.5752584   7.3017584
  42.5422584  13.1642584   8.0727584  41.7612584  21.1952584   3.9647584
  41.7202584  22.1412584   4.1067584  42.0772584  21.1022584   3.0657584
  44.4042584  20.2492584   5.0137584  43.5632584  20.5702584   4.6857584
  44.7532584  20.9752584   5.5297584  37.3602584  17.2422584   0.9907584
  37.0762584  16.4392584   1.4267584  37.1742584  17.9372584   1.6217584
  40.7502584  15.6252584   6.6637584  41.5502584  15.1062584   6.7477584
  40.6042584  15.6892584   5.7197584  38.1842584  22.6142584  10.2587584
  38.7322584  23.3782584  10.0767584  38.1422584  22.5712584  11.2137584
  38.0682584  11.8522584   4.5797584  37.7492584  10.9752584   4.3687584
  38.8312584  11.9732584   4.0137584  45.1402584  15.5312584   0.3557584
  45.1172584  14.5752584   0.3287584  45.9802584  15.7402584   0.7657584
  38.3152584  14.4882584  -9.7392416  37.8422584  14.7552584 -10.5272416
  39.1142584  15.0152584  -9.7482416  39.8682584  27.2172584  -8.4042416
  40.3772584  27.7642584  -7.8062416  40.2482584  27.3872584  -9.2662416
  39.3612584  13.1112584  -7.2902416  38.8852584  13.4522584  -8.0472416
  39.0372584  13.6252584  -6.5512416  42.1932584  37.9542584  -1.1362416
  42.3272584  38.1032584  -0.2002416  41.8082584  38.7702584  -1.4562416
  40.5202584  33.0392584  -0.0122416  41.3992584  32.6632584  -0.0572416
  40.6102584  33.9072584  -0.4052416  37.2312584  29.9122584 -14.6812416
  38.1242584  29.5892584 -14.7972416  36.6832584  29.2712584 -15.1352416
  41.8712584  30.9242584  -2.7952416  42.4702584  31.6702584  -2.7642416
  42.4042584  30.1782584  -2.5192416  42.9912584  29.8312584 -12.6152416
  43.6472584  30.2142584 -12.0332416  42.1752584  29.8692584 -12.1162416
  39.5032584  27.2212584 -13.8562416  38.8562584  27.0602584 -13.1682416
  40.3482584  27.0862584 -13.4272416  43.6892584  27.3382584 -17.0002416
  43.0972584  27.9532584 -17.4332416  43.1902584  26.5232584 -16.9452416
  43.0452584  35.8222584  10.5587584  42.4492584  35.9852584   9.8267584
  42.5552584  35.2432584  11.1427584  44.4582584  31.5232584 -15.9882416
  44.7662584  32.2862584 -16.4762416  44.8392584  31.6262584 -15.1162416
  41.4662584  28.5812584  -6.8112416  41.0372584  29.3902584  -6.5342416
  42.2272584  28.5042584  -6.2352416  40.4402584  23.9182584 -16.1702416
  40.8292584  24.5762584 -16.7462416  40.9932584  23.9262584 -15.3892416
  41.3722584  26.2152584 -10.4512416  41.4242584  26.5962584 -11.3272416
  40.7852584  25.4662584 -10.5492416  43.8982584  33.3012584 -12.3562416
  44.5072584  32.8182584 -12.9142416  43.2452584  33.6532584 -12.9612416
  37.9742584  26.2122584 -16.3102416  38.5682584  26.2672584 -15.5612416
  38.4992584  26.5032584 -17.0552416  44.1062584  34.4902584  -6.3632416
  43.9542584  35.4262584  -6.2352416  45.0542584  34.3882584  -6.2792416
  37.8082584  23.1772584 -16.9472416  37.1792584  23.8882584 -16.8282416
  38.6592584  23.5772584 -16.7702416  44.8712584  24.0712584  -1.1532416
  44.5742584  24.0402584  -0.2442416  45.6482584  23.5122584  -1.1722416
  41.5582584  30.9962584  -8.4752416  41.0192584  31.4462584  -7.8242416
  42.2492584  31.6232584  -8.6892416  40.5012584  30.7832584  -5.2062416
  40.8382584  31.5392584  -5.6872416  41.0112584  30.7662584  -4.3962416
  38.1852584   8.4292584   6.3567584  38.9702584   8.5002584   5.8137584
  38.4352584   8.8232584   7.1927584  37.9752584  25.1212584  -3.4632416
  37.3712584  24.6872584  -2.8602416  37.5002584  25.8962584  -3.7622416
  43.9322584  32.6122584  -9.3952416  44.0322584  33.5202584  -9.1102416
  44.0622584  32.6422584 -10.3432416  40.5242584  27.8072584  -1.1792416
  39.6352584  28.0002584  -0.8802416  41.0882584  28.1112584  -0.4692416
  40.2992584  30.3802584 -11.2002416  40.6122584  31.1372584 -10.7042416
  39.3452584  30.4572584 -11.1792416  44.2552584  29.8842584 -10.1032416
  44.4562584  30.6462584  -9.5592416  43.7422584  29.3112584  -9.5332416
  40.3672584   9.0172584 -14.8062416  41.3222584   9.0842584 -14.8122416
  40.0712584   9.8422584 -14.4222416  45.1872584  29.7562584  -4.7202416
  46.0852584  29.7662584  -4.3892416  45.1712584  30.4362584  -5.3932416
  45.4342584  28.1592584   5.8827584  45.2412584  27.6192584   6.6497584
  46.3892584  28.1582584   5.8227584  45.1592584  31.6352584   5.2197584
  45.8242584  31.1352584   4.7467584  45.1482584  32.4892584   4.7857584
  44.3932584  10.6192584   0.4167584  44.9452584   9.8532584   0.2597584
  43.6422584  10.2782584   0.9037584  43.9622584  36.9072584  -5.1472416
  44.5532584  37.6402584  -4.9732416  43.1572584  37.1322584  -4.6812416
  38.6472584  38.1452584  -3.4872416  38.6262584  39.0962584  -3.3762416
  39.4782584  37.9742584  -3.9302416  44.0262584  28.9762584  -1.4902416
  44.6442584  28.2792584  -1.7092416  43.4682584  28.5982584  -0.8102416
  43.3262584  31.9402584   0.7197584  43.5202584  31.7232584  -0.1922416
  44.1532584  32.2762584   1.0677584  38.8742584  36.8842584 -11.7982416
  39.5432584  36.3752584 -12.2542416  38.0892584  36.3382584 -11.8362416
  40.5472584  33.1432584 -10.3142416  40.9492584  33.9792584 -10.0792416
  39.7112584  33.3832584 -10.7152416  38.6062584  35.1892584 -18.9842416
  39.3822584  35.5022584 -19.4492416  38.4282584  34.3302584 -19.3662416
  38.7052584  27.4942584  -5.7742416  38.0152584  27.8792584  -6.3142416
  39.1982584  26.9372584  -6.3772416  41.1382584  35.3012584  -1.2342416
  40.9562584  35.2542584  -2.1722416  41.6462584  36.1062584  -1.1292416
  40.6342584  14.6152584 -17.4752416  41.1962584  15.2822584 -17.8702416
  41.1692584  14.2332584 -16.7792416  44.3882584  30.9092584   8.7327584
  43.8012584  30.7992584   7.9847584  45.2672584  30.8342584   8.3597584
  37.3302584  11.9932584 -13.5432416  37.1852584  11.0792584 -13.7852416
  37.2662584  12.0012584 -12.5882416  42.2482584   9.4342584   8.2367584
  42.4302584  10.2432584   7.7597584  42.1172584   8.7772584   7.5527584
  41.9412584  34.8642584 -17.2992416  42.0242584  34.1432584 -16.6752416
  41.1212584  35.2952584 -17.0612416  44.1882584  24.4292584   1.3537584
  43.6142584  24.1712584   2.0757584  44.1872584  25.3862584   1.3777584
  42.7112584  29.2982584 -18.7462416  41.8062584  29.3372584 -19.0562416
  43.0622584  30.1712584 -18.9202416  41.1132584  32.1672584   8.5237584
  40.9682584  31.2312584   8.3837584  41.8002584  32.2072584   9.1887584
  42.8202584  33.9662584   2.6867584  43.3282584  34.3612584   1.9777584
  42.4602584  33.1652584   2.3067584  40.7632584  29.4072584   8.5507584
  39.8892584  29.2942584   8.1777584  41.3572584  29.0952584   7.8697584
  44.9942584  26.0412584   7.5857584  45.1442584  26.5272584   8.3967584
  45.8642584  25.7472584   7.3167584  45.2052584  34.0472584   9.7287584
  44.5402584  34.4322584  10.2997584  44.7622584  33.9302584   8.8887584
  37.0912584  34.1262584   3.5747584  36.9782584  33.3302584   4.0937584
  38.0312584  34.1662584   3.3977584  42.6792584  25.4622584   6.0787584
  42.5702584  24.5552584   6.3667584  43.5372584  25.7192584   6.4167584
  42.0622584  30.4402584 -14.8872416  42.6772584  30.7712584 -15.5422416
  42.5812584  30.3692584 -14.0852416  38.3772584  32.3022584 -17.0982416
  38.8972584  31.8062584 -17.7302416  38.8152584  32.1562584 -16.2602416
  38.4692584  29.3552584   2.9457584  38.7192584  28.6872584   2.3077584
  39.1552584  30.0192584   2.8797584  44.6062584  34.6362584   0.6767584
  44.6182584  35.0832584  -0.1692416  45.4352584  34.8812584   1.0887584
  39.1032584  34.4772584   7.0577584  38.2232584  34.8152584   6.8957584
  39.0032584  33.9012584   7.8157584  44.0982584  38.0932584   5.0217584
  44.5982584  37.5592584   5.6387584  44.7302584  38.3342584   4.3447584
  45.4462584   9.7012584   8.7627584  44.7892584   9.8422584   9.4447584
  45.3822584   8.7672584   8.5587584  44.4722584  34.8452584   6.9147584
  43.5472584  34.7192584   6.7017584  44.9132584  34.8602584   6.0657584
  44.3332584  35.9812584  -1.6962416  44.0222584  35.7102584  -2.5602416
  43.7342584  36.6802584  -1.4342416  45.2262584  37.6022584  -8.8432416
  45.8052584  37.2802584  -8.1532416  44.7042584  38.2832584  -8.4192416
  45.6162584  37.0212584   8.4167584  45.2902584  36.4372584   7.7317584
  45.2142584  36.6942584   9.2217584  42.6952584   8.6102584   1.5167584
  42.3452584   9.2372584   2.1497584  42.5572584   7.7552584   1.9257584
  37.2542584  15.1622584  -1.7972416  37.9722584  15.7662584  -1.6082416
  36.9112584  15.4552584  -2.6412416  37.6562584  31.3252584  -6.1222416
  37.4062584  30.4172584  -6.2922416  38.5532584  31.2702584  -5.7932416
  42.8092584  12.3502584  -1.4182416  43.3232584  11.8492584  -0.7862416
  42.3032584  11.6902584  -1.8932416  42.6242584  17.3592584  -6.0342416
  41.7382584  17.2782584  -5.6822416  42.6002584  18.1572584  -6.5632416
  38.4362584  33.8162584  -8.2912416  39.0772584  33.2332584  -8.6982416
  37.6342584  33.2962584  -8.2432416  37.7522584  11.8712584 -17.2742416
  38.0972584  12.3762584 -18.0102416  36.8132584  11.8042584 -17.4482416
  38.8892584  22.9972584 -13.7262416  38.2672584  22.9472584 -14.4532416
  38.9552584  22.0982584 -13.4052416  37.3672584  20.2672584  -7.7742416
  37.6342584  20.0392584  -6.8842416  38.0932584  20.7872584  -8.1172416
  41.9862584  34.2472584 -14.1322416  41.5462584  35.0712584 -13.9202416
  41.2732584  33.6292584 -14.2922416  37.2242584  14.7692584 -12.0912416
  36.6462584  14.3282584 -12.7152416  37.9022584  15.1712584 -12.6352416
  42.6042584  10.0732584  -5.2792416  43.5462584   9.9802584  -5.4262416
  42.3132584  10.6792584  -5.9602416  45.7432584  12.8332584   0.0477584
  46.3502584  12.5302584   0.7237584  45.0082584  12.2212584   0.0947584
  41.3782584  27.6952584  -3.8182416  40.4682584  27.8932584  -4.0392416
  41.4302584  27.8272584  -2.8722416  39.8892584  12.5242584   2.4907584
  39.4992584  12.0212584   1.7757584  40.1932584  13.3322584   2.0757584
  39.8302584  17.3612584 -10.7462416  40.2532584  17.5632584  -9.9112416
  38.9642584  17.7622584 -10.6792416  39.1602584  16.6862584  -0.9532416
  40.0112584  17.0902584  -0.7852416  38.6022584  16.9962584  -0.2402416
  43.2592584  11.9392584 -16.0452416  42.9062584  12.8032584 -15.8312416
  42.5692584  11.5202584 -16.5602416  43.0802584  18.7152584 -14.0162416
  42.8292584  19.2712584 -13.2782416  43.0662584  19.3002584 -14.7732416
  41.2922584  25.6682584   1.5237584  40.7512584  26.0642584   0.8407584
  41.9782584  26.3152584   1.6917584  38.4482584  15.2452584  -5.2172416
  37.5602584  15.1722584  -4.8702416  38.7412584  16.1152584  -4.9472416
  38.3972584  26.7662584 -11.2212416  38.9802584  26.8942584 -10.4722416
  37.6072584  26.3762584 -10.8472416  42.3622584  22.9532584  -3.0022416
  43.0342584  22.8712584  -2.3262416  41.6132584  23.3422584  -2.5512416
  41.5992584  19.3042584 -18.3322416  40.8932584  19.8772584 -18.0332416
  42.3172584  19.4682584 -17.7202416  45.7072584  27.3592584 -14.6862416
  45.6382584  26.4292584 -14.4702416  45.0672584  27.4912584 -15.3852416
  38.1082584  20.6322584 -15.8672416  37.9602584  21.2942584 -16.5422416
  37.4382584  19.9682584 -16.0312416  38.1722584  20.2182584 -12.9142416
  37.9992584  20.0032584 -13.8312416  38.0312584  19.3962584 -12.4442416
  39.7962584  24.8192584   8.2247584  39.5622584  24.4762584   7.3627584
  40.7282584  24.6192584   8.3177584  38.1692584  22.3572584   7.4157584
  38.4712584  22.4442584   8.3197584  38.9372584  22.0492584   6.9347584
  37.8762584  12.9152584   7.1997584  38.0152584  12.7692584   6.2647584
  38.0702584  13.8432584   7.3297584  40.1102584  18.6902584   3.5397584
  39.5192584  19.2582584   3.0447584  40.6932584  19.2942584   3.9997584
  39.8422584  15.5062584   3.9497584  40.1092584  16.3182584   3.5177584
  39.2972584  15.0582584   3.3017584  40.4282584  27.1322584   5.4107584
  39.8032584  26.4082584   5.4347584  41.2762584  26.7252584   5.5877584
  42.3762584  23.6792584   9.3507584  42.4432584  23.0802584   8.6077584
  43.2842584  23.8512584   9.6017584  38.9072584  13.1822584 -15.1532416
  38.5862584  12.7652584 -15.9532416  38.2792584  12.9232584 -14.4792416
  43.3552584  29.9652584   5.9987584  43.8162584  30.7432584   5.6857584
  43.9942584  29.2572584   5.9127584  39.4472584  24.3962584   5.3317584
  38.6862584  23.9032584   5.0267584  40.2002584  23.8862584   5.0327584
  37.3142584  15.6082584   5.6557584  38.1942584  15.7422584   5.3017584
  36.8712584  16.4462584   5.5207584  42.4712584  19.9902584 -11.8322416
  42.0382584  19.3572584 -11.2582416  42.7682584  20.6832584 -11.2432416
  43.2452584  14.4732584  -6.3902416  43.9552584  14.3602584  -7.0222416
  43.1732584  15.4202584  -6.2762416  37.7022584  18.2002584  -5.4822416
  37.0202584  18.2152584  -4.8102416  37.4182584  17.5232584  -6.0972416
  40.3302584  24.3432584  -1.9382416  40.4812584  25.1702584  -1.4812416
  39.5172584  24.4822584  -2.4242416  37.0672584  17.6622584   8.0697584
  37.6332584  17.9312584   7.3457584  37.6462584  17.1832584   8.6627584
  41.1072584  22.7502584   0.7157584  40.5172584  23.4802584   0.9007584
  41.0632584  22.6412584  -0.2342416  42.6542584  22.7512584   6.7567584
  42.0442584  22.1162584   6.3797584  43.4612584  22.2562584   6.8937584
  43.3692584  12.0802584   4.4807584  44.2252584  11.8682584   4.8537584
  42.8202584  12.2792584   5.2387584  37.8442584  22.5582584   4.1447584
  36.9052584  22.3822584   4.2007584  38.1742584  21.9052584   3.5277584
  39.2472584  20.9392584   2.2917584  39.9712584  21.4832584   1.9827584
  38.5122584  21.1732584   1.7257584  41.8322584  16.6402584 -19.0192416
  41.7432584  17.5762584 -18.8402416  42.7732584  16.4742584 -18.9642416
  40.7722584  13.7282584  -4.6572416  41.4802584  14.1812584  -5.1162416
  40.0402584  14.3452584  -4.6762416  39.6272584  37.8822584   1.9417584
  38.9602584  37.1972584   1.9237584  39.3372584  38.5172584   1.2867584
  38.9032584  12.9932584  -2.0182416  38.4612584  12.5472584  -2.7412416
  38.2742584  13.6512584  -1.7222416  40.9792584  11.5732584 -13.8392416
  41.9332584  11.6502584 -13.8062416  40.6962584  12.3182584 -14.3692416
  38.2262584  34.0382584  -5.4092416  37.4022584  33.6742584  -5.0872416
  38.4242584  33.5262584  -6.1932416  39.1272584  38.1222584  -0.7382416
  39.4402584  37.2182584  -0.7252416  38.7042584  38.2172584  -1.5922416
  38.3492584  26.8952584   0.6597584  37.4642584  27.2152584   0.4857584
  38.2282584  25.9802584   0.9147584  39.2732584  36.7682584 -15.8722416
  38.8412584  37.2092584 -16.6032416  39.6602584  37.4782584 -15.3592416
  39.9292584  31.6762584   2.3237584  40.0822584  32.0452584   1.4547584
  39.7402584  32.4342584   2.8767584  40.2462584  35.2022584  -3.8082416
  39.6052584  34.7282584  -4.3372416  40.3092584  36.0632584  -4.2212416
  38.4012584  32.8132584   9.5957584  37.9452584  32.0232584   9.8847584
  39.3122584  32.5392584   9.4877584  38.0762584  24.3272584   1.6157584
  38.2132584  24.0812584   2.5307584  37.2362584  23.9302584   1.3837584
  44.3272584  32.0642584  -1.8632416  44.1532584  32.8762584  -2.3372416
  44.6762584  31.4682584  -2.5262416  42.0062584  29.0392584   0.9537584
  42.0922584  29.9672584   1.1717584  42.0802584  28.5872584   1.7937584
  40.0732584  35.8972584  -7.1132416  39.2172584  35.4722584  -7.1652416
  40.4612584  35.7642584  -7.9772416  37.3642584  34.3062584 -15.7382416
  37.7962584  33.7642584 -16.3992416  38.0372584  34.9272584 -15.4602416
  37.8162584  33.5192584   0.4457584  38.7442584  33.3022584   0.5327584
  37.7842584  34.1502584  -0.2722416  38.1142584  38.3932584  -9.4322416
  38.6122584  37.8322584 -10.0282416  37.2712584  38.5172584  -9.8682416
  37.3222584   8.7132584 -13.2362416  37.3272584   8.6412584 -14.1912416
  37.8672584   7.9852584 -12.9382416  45.0392584  13.0882584   9.4507584
  45.4142584  13.1732584  10.3267584  44.5562584  12.2622584   9.4747584
  37.7442584  31.4672584 -10.9942416  37.3792584  31.8722584 -11.7802416
  37.0502584  31.5452584 -10.3392416  38.6772584  28.9472584   6.7407584
  39.1842584  28.3182584   6.2267584  38.0712584  29.3382584   6.1107584
  40.0362584  34.1462584   3.7687584  40.9622584  33.9312584   3.6537584
  40.0412584  35.0022584   4.1977584  40.9892584  11.0742584 -17.8442416
  40.3522584  11.5322584 -18.3932416  40.4622584  10.4882584 -17.3022416
  40.3662584  38.1322584   4.4847584  40.0882584  37.9342584   3.5907584
  40.8022584  38.9822584   4.4187584  39.8972584  29.5952584 -18.8452416
  39.0562584  30.0532584 -18.8362416  40.0832584  29.4552584 -19.7742416
  42.2322584  28.6942584   3.9377584  42.6262584  29.2402584   4.6177584
  41.4262584  28.3622584   4.3337584  39.2572584  10.8762584   0.2597584
  39.2292584  11.5352584  -0.4342416  38.5852584  10.2402584   0.0147584
  41.7562584  34.2962584   6.5937584  40.8212584  34.4622584   6.7107584
  41.8942584  33.4252584   6.9677584  41.3142584  22.1092584  24.3807584
  41.2142584  22.8582584  24.9677584  41.8592584  21.4922584  24.8687584
  44.1572584  35.7082584  14.7527584  43.4522584  35.1512584  15.0827584
  44.1822584  36.4472584  15.3607584  43.9042584  27.1442584  32.0897584
  43.5772584  27.7992584  32.7077584  44.8462584  27.3072584  32.0447584
  43.0722584  15.4032584  19.3207584  42.6072584  14.6062584  19.0677584
  43.0962584  15.9302584  18.5217584  42.8082584  22.1202584  19.5697584
  42.9582584  22.1512584  20.5147584  41.9472584  22.5202584  19.4497584
  39.7262584  15.5972584  39.4667584  40.4672584  16.0092584  39.9127584
  40.0562584  15.3942584  38.5917584  39.5822584  29.2042584  14.4657584
  40.3752584  29.7402584  14.4667584  39.8662584  28.3542584  14.8017584
  41.6252584  37.2202584  36.8537584  42.0912584  36.5432584  36.3627584
  40.9772584  37.5612584  36.2367584  38.7822584  16.3022584  15.7577584
  39.1062584  15.5142584  15.3227584  39.5682584  16.7282584  16.1007584
  41.5712584  10.1292584  27.2577584  40.6402584  10.2662584  27.0837584
  41.9612584  10.0052584  26.3927584  44.0682584  35.3602584  20.3777584
  44.2852584  36.2432584  20.6757584  44.2102584  35.3842584  19.4317584
  45.5472584  14.8182584  14.1217584  46.2112584  15.3402584  13.6717584
  45.1812584  15.4112584  14.7787584  44.9872584  22.2042584  17.7117584
  44.3522584  21.9432584  18.3787584  45.5582584  21.4422584  17.6127584
  44.8422584  25.7352584  23.1217584  44.3262584  26.3282584  23.6687584
  44.8072584  24.8952584  23.5797584  44.4012584  16.6372584  40.4717584
  44.5532584  17.1762584  41.2477584  45.2582584  16.5752584  40.0507584
  41.8802584  12.0452584  22.9667584  41.0272584  12.3842584  22.6927584
  42.4242584  12.8252584  23.0737584  42.1102584  22.5142584  16.6737584
  42.4362584  21.7152584  17.0887584  41.5892584  22.9422584  17.3527584
  40.1932584  32.1552584  15.6127584  39.7532584  31.5652584  16.2247584
  40.9842584  31.6842584  15.3507584  43.6522584  27.4812584  24.8307584
  42.9902584  27.3902584  25.5157584  44.2832584  28.1052584  25.1887584
  44.5702584  37.2462584  12.2997584  43.8742584  36.7212584  11.9047584
  44.4802584  37.0942584  13.2407584  43.2002584   9.3142584  15.0827584
  44.0492584   8.9052584  14.9137584  43.3542584  10.2492584  14.9507584
  45.8562584  31.5192584  16.3467584  46.3572584  31.1372584  17.0677584
  46.4982584  31.6442584  15.6477584  39.9572584  18.7552584  26.5587584
  39.3912584  19.2272584  25.9477584  39.3512584  18.3022584  27.1457584
  40.9862584  14.3632584  29.1657584  41.7292584  13.8282584  28.8877584
  40.2352584  13.9882584  28.7047584  44.4582584  13.9212584  21.3897584
  43.8432584  14.4992584  20.9377584  44.8342584  13.3802584  20.6957584
  41.6832584  12.7492584  19.2307584  41.0122584  12.1112584  19.4707584
  41.9452584  12.5012584  18.3447584  41.1892584  18.4662584  29.8557584
  41.8992584  17.9232584  29.5117584  41.3292584  19.3252584  29.4567584
  43.3912584  37.2202584  18.0117584  42.8162584  37.7562584  18.5567584
  44.1322584  37.7912584  17.8087584  44.5502584  23.3822584  24.7257584
  43.9342584  23.0952584  25.3997584  44.9052584  22.5692584  24.3647584
  38.7692584  10.2712584  22.9987584  38.8632584   9.8322584  22.1537584
  38.9742584  11.1882584  22.8177584  43.0712584  19.5682584  38.9727584
  43.8782584  19.6432584  39.4807584  42.3892584  19.4102584  39.6257584
  41.9002584  23.8542584  33.7477584  41.7572584  24.3342584  32.9317584
  42.1642584  24.5252584  34.3767584  40.1082584  24.8892584  24.9827584
  40.7212584  25.5392584  25.3247584  39.4382584  24.8092584  25.6617584
  42.2592584  20.6322584  28.7647584  43.0252584  20.1502584  28.4527584
  41.8822584  21.0202584  27.9747584  41.6632584  15.4252584  31.7147584
  41.5692584  15.1512584  30.8017584  41.6532584  16.3812584  31.6807584
  41.5502584  33.0832584  23.7527584  42.3752584  33.5152584  23.5297584
  41.0672584  33.7342584  24.2607584  43.2792584  23.2922584  22.0627584
  42.6602584  23.8112584  21.5497584  43.1892584  23.6262584  22.9557584
  45.6952584  12.5722584  19.2317584  46.0562584  12.8882584  18.4037584
  46.1742584  11.7622584  19.4087584  43.0912584  34.6072584  26.4037584
  42.1702584  34.8352584  26.2787584  43.4492584  34.5612584  25.5177584
  41.3652584  16.4742584  17.1777584  40.7932584  16.7652584  17.8877584
  41.5162584  17.2602584  16.6527584  40.7402584  37.6292584  25.0077584
  40.6462584  37.1652584  24.1757584  41.2712584  38.3972584  24.7957584
  44.8392584  24.0232584  11.1807584  45.3312584  23.3402584  11.6357584
  45.3432584  24.8232584  11.3307584  42.9352584  19.9842584  22.9057584
  42.7032584  20.2032584  23.8087584  43.7782584  20.4142584  22.7647584
  38.3932584  26.2462584  40.0687584  39.0982584  26.5322584  40.6487584
  38.8402584  25.8042584  39.3477584  41.2742584  19.4062584  20.8107584
  40.5512584  20.0172584  20.9477584  41.8802584  19.5862584  21.5307584
  39.6632584  10.7032584  20.1057584  39.1142584  11.4412584  19.8387584
  39.0752584   9.9482584  20.0867584  40.2132584  24.5242584  22.2157584
  40.1682584  24.5942584  23.1697584  40.3022584  25.4282584  21.9127584
  45.2382584  26.7182584  27.8897584  45.0062584  26.0112584  28.4917584
  45.4352584  26.2752584  27.0647584  45.2132584   9.4852584  24.6827584
  45.3802584  10.2382584  24.1157584  45.7782584   9.6282584  25.4437584
  41.0492584  36.7012584  16.7297584  40.7262584  37.5562584  16.4447584
  41.9332584  36.8732584  17.0517584  39.3162584  30.5652584  28.4797584
  40.0352584  30.2432584  27.9377584  39.5002584  31.4972584  28.5947584
  42.9962584  24.5122584  14.9317584  43.7882584  24.0762584  14.6177584
  42.8112584  24.0952584  15.7737584  43.9282584  18.8432584  27.5317584
  44.8642584  18.6462584  27.4937584  43.5242584  18.0322584  27.8407584
  45.3242584  25.7562584  20.3037584  45.3052584  26.6742584  20.0307584
  45.1902584  25.7852584  21.2507584  44.9212584  21.6862584  37.3877584
  44.6932584  21.1692584  38.1607584  45.6192584  22.2692584  37.6847584
  41.6252584   8.4042584  19.7717584  42.1472584   8.7632584  20.4887584
  40.9012584   9.0222584  19.6687584  40.3912584  23.7212584  18.6147584
  39.7932584  23.8482584  17.8787584  39.9192584  23.1412584  19.2107584
  43.5442584  20.9642584  31.4217584  42.9572584  21.0702584  30.6727584
  44.0012584  21.8022584  31.4887584  39.3872584  10.8672584  25.6397584
  39.1792584  10.4492584  24.8037584  39.9522584  11.6042584  25.4047584
  42.4822584  25.0312584  11.8637584  43.3912584  24.8352584  12.0927584
  42.2882584  24.4452584  11.1327584  43.1542584   9.7302584  21.4587584
  43.9022584  10.3252584  21.5027584  42.3952584  10.2842584  21.6427584
  43.2752584  20.1902584  13.7457584  42.4552584  20.6832584  13.7087584
  43.9132584  20.8122584  14.0947584  43.5752584  12.3122584  16.8977584
  44.0172584  12.5952584  17.6977584  43.9702584  12.8422584  16.2047584
  43.6252584  17.6752584  20.2877584  42.8472584  18.2302584  20.2307584
  43.3862584  16.8772584  19.8157584  43.0882584  27.7832584  21.1167584
  42.4252584  28.0282584  21.7617584  42.6162584  27.2472584  20.4797584
  45.1952584  22.2352584  14.9067584  45.8772584  22.8492584  14.6357584
  45.1192584  22.3622584  15.8527584  45.7852584  28.4422584  22.2767584
  44.8852584  28.1172584  22.2417584  45.6942584  29.3892584  22.3847584
  41.2312584  35.6902584  20.5727584  42.1662584  35.4822584  20.5747584
  41.1932584  36.6212584  20.3547584  45.0172584  18.1392584  12.5217584
  45.8922584  17.8292584  12.7537584  44.5632584  18.2282584  13.3597584
  42.5852584  18.2712584  32.1637584  41.6812584  18.5182584  32.3577584
  43.0752584  19.0912584  32.2187584  42.5692584  14.2852584  15.1597584
  43.1312584  15.0272584  14.9367584  42.3202584  14.4382584  16.0717584
  40.2362584  21.3072584  36.2287584  40.7282584  21.1592584  35.4217584
  39.9252584  20.4382584  36.4837584  42.8672584  32.0542584  10.7017584
  43.2882584  32.3032584  11.5247584  43.5772584  31.6992584  10.1677584
  40.2212584  26.7022584  12.0527584  40.3502584  27.6502584  12.0817584
  41.0662584  26.3532584  11.7717584  42.8572584  16.6092584  28.8717584
  43.4562584  16.3132584  29.5577584  42.3822584  15.8202584  28.6117584
  43.1042584  14.6982584  33.7957584  43.0572584  13.7422584  33.7807584
  42.4512584  14.9812584  33.1567584  40.7482584  21.2162584  13.8947584
  39.9152584  20.8482584  14.1917584  40.6552584  22.1592584  14.0307584
  40.6662584  18.0372584  37.7667584  40.9022584  17.1512584  37.4927584
  41.2912584  18.2492584  38.4597584  42.8892584  14.9952584  38.5847584
  43.4662584  15.2182584  37.8547584  43.4232584  15.1412584  39.3657584
  39.8292584  17.6222584  23.2747584  39.3182584  18.2432584  23.7927584
  39.1772584  17.0412584  22.8847584  42.3502584  19.9032584  25.7377584
  41.5862584  19.4832584  26.1317584  43.1002584  19.4572584  26.1327584
  41.5672584  10.4692584  33.2117584  42.2382584  11.0212584  33.6147584
  40.9472584  11.0882584  32.8277584  44.9952584  24.9782584  17.6837584
  44.8082584  24.0482584  17.8087584  45.0262584  25.3392584  18.5697584
  38.9682584   9.0602584  39.5557584  39.7682584   9.5062584  39.8337584
  38.3012584   9.7472584  39.5477584  40.2322584  36.3902584  39.1897584
  40.4592584  36.1962584  38.2797584  40.0982584  37.3372584  39.2067584
  45.3522584  19.8422584  40.1367584  46.3002584  19.9722584  40.1447584
  45.1832584  19.2562584  40.8747584  44.6042584  16.6812584  33.1587584
  44.1972584  15.8232584  33.2767584  44.0912584  17.0972584  32.4657584
  43.1522584  10.9202584  40.2717584  42.5962584  10.8482584  41.0467584
  42.6682584  10.4622584  39.5847584  45.3822584  25.5872584  34.2097584
  46.2622584  25.5022584  34.5757584  45.1682584  26.5152584  34.3107584
  44.4042584  16.4402584  16.0057584  43.8352584  17.1922584  16.1707584
  45.1622584  16.5832584  16.5717584  42.0882584  27.2872584  17.1107584
  42.4852584  28.1322584  17.3237584  42.6022584  26.9602584  16.3727584
  38.0712584  37.5672584  11.8367584  38.3712584  38.0792584  11.0857584
  38.2312584  36.6572584  11.5867584  44.1022584  13.0042584  26.0907584
  43.6202584  13.5562584  25.4757584  43.4752584  12.8192584  26.7897584
  38.8102584  18.0952584  35.8257584  39.5192584  17.9712584  36.4567584
  39.2462584  18.4022584  35.0317584  42.3082584  12.4402584  37.4927584
  41.3802584  12.5752584  37.3017584  42.5422584  13.1642584  38.0727584
  41.7612584  21.1952584  33.9647584  41.7202584  22.1412584  34.1067584
  42.0772584  21.1022584  33.0657584  44.4042584  20.2492584  35.0137584
  43.5632584  20.5702584  34.6857584  44.7532584  20.9752584  35.5297584
  37.3602584  17.2422584  30.9907584  37.0762584  16.4392584  31.4267584
  37.1742584  17.9372584  31.6217584  40.7502584  15.6252584  36.6637584
  41.5502584  15.1062584  36.7477584  40.6042584  15.6892584  35.7197584
  38.1842584  22.6142584  40.2587584  38.7322584  23.3782584  40.0767584
  38.1422584  22.5712584  41.2137584  38.0682584  11.8522584  34.5797584
  37.7492584  10.9752584  34.3687584  38.8312584  11.9732584  34.0137584
  45.1402584  15.5312584  30.3557584  45.1172584  14.5752584  30.3287584
  45.9802584  15.7402584  30.7657584  38.3152584  14.4882584  20.2607584
  37.8422584  14.7552584  19.4727584  39.1142584  15.0152584  20.2517584
  39.8682584  27.2172584  21.5957584  40.3772584  27.7642584  22.1937584
  40.2482584  27.3872584  20.7337584  39.3612584  13.1112584  22.7097584
  38.8852584  13.4522584  21.9527584  39.0372584  13.6252584  23.4487584
  42.1932584  37.9542584  28.8637584  42.3272584  38.1032584  29.7997584
  41.8082584  38.7702584  28.5437584  40.5202584  33.0392584  29.9877584
  41.3992584  32.6632584  29.9427584  40.6102584  33.9072584  29.5947584
  37.2312584  29.9122584  15.3187584  38.1242584  29.5892584  15.2027584
  36.6832584  29.2712584  14.8647584  41.8712584  30.9242584  27.2047584
  42.4702584  31.6702584  27.2357584  42.4042584  30.1782584  27.4807584
  42.9912584  29.8312584  17.3847584  43.6472584  30.2142584  17.9667584
  42.1752584  29.8692584  17.8837584  39.5032584  27.2212584  16.1437584
  38.8562584  27.0602584  16.8317584  40.3482584  27.0862584  16.5727584
  43.6892584  27.3382584  12.9997584  43.0972584  27.9532584  12.5667584
  43.1902584  26.5232584  13.0547584  43.0452584  35.8222584  40.5587584
  42.4492584  35.9852584  39.8267584  42.5552584  35.2432584  41.1427584
  44.4582584  31.5232584  14.0117584  44.7662584  32.2862584  13.5237584
  44.8392584  31.6262584  14.8837584  41.4662584  28.5812584  23.1887584
  41.0372584  29.3902584  23.4657584  42.2272584  28.5042584  23.7647584
  41.3722584  26.2152584  19.5487584  41.4242584  26.5962584  18.6727584
  40.7852584  25.4662584  19.4507584  43.8982584  33.3012584  17.6437584
  44.5072584  32.8182584  17.0857584  43.2452584  33.6532584  17.0387584
  44.1062584  34.4902584  23.6367584  43.9542584  35.4262584  23.7647584
  45.0542584  34.3882584  23.7207584  44.8712584  24.0712584  28.8467584
  44.5742584  24.0402584  29.7557584  45.6482584  23.5122584  28.8277584
  41.5582584  30.9962584  21.5247584  41.0192584  31.4462584  22.1757584
  42.2492584  31.6232584  21.3107584  40.5012584  30.7832584  24.7937584
  40.8382584  31.5392584  24.3127584  41.0112584  30.7662584  25.6037584
  38.1852584   8.4292584  36.3567584  38.9702584   8.5002584  35.8137584
  38.4352584   8.8232584  37.1927584  37.9752584  25.1212584  26.5367584
  37.3712584  24.6872584  27.1397584  37.5002584  25.8962584  26.2377584
  43.9322584  32.6122584  20.6047584  44.0322584  33.5202584  20.8897584
  44.0622584  32.6422584  19.6567584  40.5242584  27.8072584  28.8207584
  39.6352584  28.0002584  29.1197584  41.0882584  28.1112584  29.5307584
  40.2992584  30.3802584  18.7997584  40.6122584  31.1372584  19.2957584
  39.3452584  30.4572584  18.8207584  44.2552584  29.8842584  19.8967584
  44.4562584  30.6462584  20.4407584  43.7422584  29.3112584  20.4667584
  40.3672584   9.0172584  15.1937584  41.3222584   9.0842584  15.1877584
  40.0712584   9.8422584  15.5777584  45.1872584  29.7562584  25.2797584
  46.0852584  29.7662584  25.6107584  45.1712584  30.4362584  24.6067584
  45.4342584  28.1592584  35.8827584  45.2412584  27.6192584  36.6497584
  46.3892584  28.1582584  35.8227584  45.1592584  31.6352584  35.2197584
  45.8242584  31.1352584  34.7467584  45.1482584  32.4892584  34.7857584
  44.3932584  10.6192584  30.4167584  44.9452584   9.8532584  30.2597584
  43.6422584  10.2782584  30.9037584  43.9622584  36.9072584  24.8527584
  44.5532584  37.6402584  25.0267584  43.1572584  37.1322584  25.3187584
  38.6472584  38.1452584  26.5127584  38.6262584  39.0962584  26.6237584
  39.4782584  37.9742584  26.0697584  44.0262584  28.9762584  28.5097584
  44.6442584  28.2792584  28.2907584  43.4682584  28.5982584  29.1897584
  43.3262584  31.9402584  30.7197584  43.5202584  31.7232584  29.8077584
  44.1532584  32.2762584  31.0677584  38.8742584  36.8842584  18.2017584
  39.5432584  36.3752584  17.7457584  38.0892584  36.3382584  18.1637584
  40.5472584  33.1432584  19.6857584  40.9492584  33.9792584  19.9207584
  39.7112584  33.3832584  19.2847584  38.6062584  35.1892584  11.0157584
  39.3822584  35.5022584  10.5507584  38.4282584  34.3302584  10.6337584
  38.7052584  27.4942584  24.2257584  38.0152584  27.8792584  23.6857584
  39.1982584  26.9372584  23.6227584  41.1382584  35.3012584  28.7657584
  40.9562584  35.2542584  27.8277584  41.6462584  36.1062584  28.8707584
  40.6342584  14.6152584  12.5247584  41.1962584  15.2822584  12.1297584
  41.1692584  14.2332584  13.2207584  44.3882584  30.9092584  38.7327584
  43.8012584  30.7992584  37.9847584  45.2672584  30.8342584  38.3597584
  37.3302584  11.9932584  16.4567584  37.1852584  11.0792584  16.2147584
  37.2662584  12.0012584  17.4117584  42.2482584   9.4342584  38.2367584
  42.4302584  10.2432584  37.7597584  42.1172584   8.7772584  37.5527584
  41.9412584  34.8642584  12.7007584  42.0242584  34.1432584  13.3247584
  41.1212584  35.2952584  12.9387584  44.1882584  24.4292584  31.3537584
  43.6142584  24.1712584  32.0757584  44.1872584  25.3862584  31.3777584
  42.7112584  29.2982584  11.2537584  41.8062584  29.3372584  10.9437584
  43.0622584  30.1712584  11.0797584  41.1132584  32.1672584  38.5237584
  40.9682584  31.2312584  38.3837584  41.8002584  32.2072584  39.1887584
  42.8202584  33.9662584  32.6867584  43.3282584  34.3612584  31.9777584
  42.4602584  33.1652584  32.3067584  40.7632584  29.4072584  38.5507584
  39.8892584  29.2942584  38.1777584  41.3572584  29.0952584  37.8697584
  44.9942584  26.0412584  37.5857584  45.1442584  26.5272584  38.3967584
  45.8642584  25.7472584  37.3167584  45.2052584  34.0472584  39.7287584
  44.5402584  34.4322584  40.2997584  44.7622584  33.9302584  38.8887584
  37.0912584  34.1262584  33.5747584  36.9782584  33.3302584  34.0937584
  38.0312584  34.1662584  33.3977584  42.6792584  25.4622584  36.0787584
  42.5702584  24.5552584  36.3667584  43.5372584  25.7192584  36.4167584
  42.0622584  30.4402584  15.1127584  42.6772584  30.7712584  14.4577584
  42.5812584  30.3692584  15.9147584  38.3772584  32.3022584  12.9017584
  38.8972584  31.8062584  12.2697584  38.8152584  32.1562584  13.7397584
  38.4692584  29.3552584  32.9457584  38.7192584  28.6872584  32.3077584
  39.1552584  30.0192584  32.8797584  44.6062584  34.6362584  30.6767584
  44.6182584  35.0832584  29.8307584  45.4352584  34.8812584  31.0887584
  39.1032584  34.4772584  37.0577584  38.2232584  34.8152584  36.8957584
  39.0032584  33.9012584  37.8157584  44.0982584  38.0932584  35.0217584
  44.5982584  37.5592584  35.6387584  44.7302584  38.3342584  34.3447584
  45.4462584   9.7012584  38.7627584  44.7892584   9.8422584  39.4447584
  45.3822584   8.7672584  38.5587584  44.4722584  34.8452584  36.9147584
  43.5472584  34.7192584  36.7017584  44.9132584  34.8602584  36.0657584
  44.3332584  35.9812584  28.3037584  44.0222584  35.7102584  27.4397584
  43.7342584  36.6802584  28.5657584  45.2262584  37.6022584  21.1567584
  45.8052584  37.2802584  21.8467584  44.7042584  38.2832584  21.5807584
  45.6162584  37.0212584  38.4167584  45.2902584  36.4372584  37.7317584
  45.2142584  36.6942584  39.2217584  42.6952584   8.6102584  31.5167584
  42.3452584   9.2372584  32.1497584  42.5572584   7.7552584  31.9257584
  37.2542584  15.1622584  28.2027584  37.9722584  15.7662584  28.3917584
  36.9112584  15.4552584  27.3587584  37.6562584  31.3252584  23.8777584
  37.4062584  30.4172584  23.7077584  38.5532584  31.2702584  24.2067584
  42.8092584  12.3502584  28.5817584  43.3232584  11.8492584  29.2137584
  42.3032584  11.6902584  28.1067584  42.6242584  17.3592584  23.9657584
  41.7382584  17.2782584  24.3177584  42.6002584  18.1572584  23.4367584
  38.4362584  33.8162584  21.7087584  39.0772584  33.2332584  21.3017584
  37.6342584  33.2962584  21.7567584  37.7522584  11.8712584  12.7257584
  38.0972584  12.3762584  11.9897584  36.8132584  11.8042584  12.5517584
  41.9862584  34.2472584  15.8677584  41.5462584  35.0712584  16.0797584
  41.2732584  33.6292584  15.7077584  37.2242584  14.7692584  17.9087584
  36.6462584  14.3282584  17.2847584  37.9022584  15.1712584  17.3647584
  42.6042584  10.0732584  24.7207584  43.5462584   9.9802584  24.5737584
  42.3132584  10.6792584  24.0397584  45.7432584  12.8332584  30.0477584
  46.3502584  12.5302584  30.7237584  45.0082584  12.2212584  30.0947584
  41.3782584  27.6952584  26.1817584  40.4682584  27.8932584  25.9607584
  41.4302584  27.8272584  27.1277584  39.8892584  12.5242584  32.4907584
  39.4992584  12.0212584  31.7757584  40.1932584  13.3322584  32.0757584
  39.8302584  17.3612584  19.2537584  40.2532584  17.5632584  20.0887584
  38.9642584  17.7622584  19.3207584  39.1602584  16.6862584  29.0467584
  40.0112584  17.0902584  29.2147584  38.6022584  16.9962584  29.7597584
  43.2592584  11.9392584  13.9547584  42.9062584  12.8032584  14.1687584
  42.5692584  11.5202584  13.4397584  43.0802584  18.7152584  15.9837584
  42.8292584  19.2712584  16.7217584  43.0662584  19.3002584  15.2267584
  41.2922584  25.6682584  31.5237584  40.7512584  26.0642584  30.8407584
  41.9782584  26.3152584  31.6917584  38.4482584  15.2452584  24.7827584
  37.5602584  15.1722584  25.1297584  38.7412584  16.1152584  25.0527584
  38.3972584  26.7662584  18.7787584  38.9802584  26.8942584  19.5277584
  37.6072584  26.3762584  19.1527584  42.3622584  22.9532584  26.9977584
  43.0342584  22.8712584  27.6737584  41.6132584  23.3422584  27.4487584
  41.5992584  19.3042584  11.6677584  40.8932584  19.8772584  11.9667584
  42.3172584  19.4682584  12.2797584  45.7072584  27.3592584  15.3137584
  45.6382584  26.4292584  15.5297584  45.0672584  27.4912584  14.6147584
  38.1082584  20.6322584  14.1327584  37.9602584  21.2942584  13.4577584
  37.4382584  19.9682584  13.9687584  38.1722584  20.2182584  17.0857584
  37.9992584  20.0032584  16.1687584  38.0312584  19.3962584  17.5557584
  39.7962584  24.8192584  38.2247584  39.5622584  24.4762584  37.3627584
  40.7282584  24.6192584  38.3177584  38.1692584  22.3572584  37.4157584
  38.4712584  22.4442584  38.3197584  38.9372584  22.0492584  36.9347584
  37.8762584  12.9152584  37.1997584  38.0152584  12.7692584  36.2647584
  38.0702584  13.8432584  37.3297584  40.1102584  18.6902584  33.5397584
  39.5192584  19.2582584  33.0447584  40.6932584  19.2942584  33.9997584
  40.4282584  27.1322584  35.4107584  39.8032584  26.4082584  35.4347584
  41.2762584  26.7252584  35.5877584  42.3762584  23.6792584  39.3507584
  42.4432584  23.0802584  38.6077584  43.2842584  23.8512584  39.6017584
  38.9072584  13.1822584  14.8467584  38.5862584  12.7652584  14.0467584
  38.2792584  12.9232584  15.5207584  43.3552584  29.9652584  35.9987584
  43.8162584  30.7432584  35.6857584  43.9942584  29.2572584  35.9127584
  39.7102584  12.2252584  39.6137584  39.5332584  13.1642584  39.6567584
  39.1982584  11.9172584  38.8657584  39.4472584  24.3962584  35.3317584
  38.6862584  23.9032584  35.0267584  40.2002584  23.8862584  35.0327584
  37.3142584  15.6082584  35.6557584  38.1942584  15.7422584  35.3017584
  36.8712584  16.4462584  35.5207584  42.4712584  19.9902584  18.1677584
  42.0382584  19.3572584  18.7417584  42.7682584  20.6832584  18.7567584
  43.2452584  14.4732584  23.6097584  43.9552584  14.3602584  22.9777584
  43.1732584  15.4202584  23.7237584  37.7022584  18.2002584  24.5177584
  37.0202584  18.2152584  25.1897584  37.4182584  17.5232584  23.9027584
  40.3302584  24.3432584  28.0617584  40.4812584  25.1702584  28.5187584
  39.5172584  24.4822584  27.5757584  37.0672584  17.6622584  38.0697584
  37.6332584  17.9312584  37.3457584  37.6462584  17.1832584  38.6627584
  41.1072584  22.7502584  30.7157584  40.5172584  23.4802584  30.9007584
  41.0632584  22.6412584  29.7657584  42.6542584  22.7512584  36.7567584
  42.0442584  22.1162584  36.3797584  43.4612584  22.2562584  36.8937584
  43.3692584  12.0802584  34.4807584  44.2252584  11.8682584  34.8537584
  42.8202584  12.2792584  35.2387584  37.8442584  22.5582584  34.1447584
  36.9052584  22.3822584  34.2007584  38.1742584  21.9052584  33.5277584
  39.2472584  20.9392584  32.2917584  39.9712584  21.4832584  31.9827584
  38.5122584  21.1732584  31.7257584  41.8322584  16.6402584  10.9807584
  41.7432584  17.5762584  11.1597584  42.7732584  16.4742584  11.0357584
  40.7722584  13.7282584  25.3427584  41.4802584  14.1812584  24.8837584
  40.0402584  14.3452584  25.3237584  39.6272584  37.8822584  31.9417584
  38.9602584  37.1972584  31.9237584  39.3372584  38.5172584  31.2867584
  38.9032584  12.9932584  27.9817584  38.4612584  12.5472584  27.2587584
  38.2742584  13.6512584  28.2777584  40.9792584  11.5732584  16.1607584
  41.9332584  11.6502584  16.1937584  40.6962584  12.3182584  15.6307584
  38.2262584  34.0382584  24.5907584  37.4022584  33.6742584  24.9127584
  38.4242584  33.5262584  23.8067584  39.1272584  38.1222584  29.2617584
  39.4402584  37.2182584  29.2747584  38.7042584  38.2172584  28.4077584
  38.3492584  26.8952584  30.6597584  37.4642584  27.2152584  30.4857584
  38.2282584  25.9802584  30.9147584  39.2732584  36.7682584  14.1277584
  38.8412584  37.2092584  13.3967584  39.6602584  37.4782584  14.6407584
  39.9292584  31.6762584  32.3237584  40.0822584  32.0452584  31.4547584
  39.7402584  32.4342584  32.8767584  40.2462584  35.2022584  26.1917584
  39.6052584  34.7282584  25.6627584  40.3092584  36.0632584  25.7787584
  38.4012584  32.8132584  39.5957584  37.9452584  32.0232584  39.8847584
  39.3122584  32.5392584  39.4877584  38.0762584  24.3272584  31.6157584
  38.2132584  24.0812584  32.5307584  37.2362584  23.9302584  31.3837584
  44.3272584  32.0642584  28.1367584  44.1532584  32.8762584  27.6627584
  44.6762584  31.4682584  27.4737584  42.0062584  29.0392584  30.9537584
  42.0922584  29.9672584  31.1717584  42.0802584  28.5872584  31.7937584
  40.0732584  35.8972584  22.8867584  39.2172584  35.4722584  22.8347584
  40.4612584  35.7642584  22.0227584  37.3642584  34.3062584  14.2617584
  37.7962584  33.7642584  13.6007584  38.0372584  34.9272584  14.5397584
  37.8162584  33.5192584  30.4457584  38.7442584  33.3022584  30.5327584
  37.7842584  34.1502584  29.7277584  38.1142584  38.3932584  20.5677584
  38.6122584  37.8322584  19.9717584  37.2712584  38.5172584  20.1317584
  37.3222584   8.7132584  16.7637584  37.3272584   8.6412584  15.8087584
  37.8672584   7.9852584  17.0617584  45.0392584  13.0882584  39.4507584
  45.4142584  13.1732584  40.3267584  44.5562584  12.2622584  39.4747584
  37.7442584  31.4672584  19.0057584  37.3792584  31.8722584  18.2197584
  37.0502584  31.5452584  19.6607584  38.6772584  28.9472584  36.7407584
  39.1842584  28.3182584  36.2267584  38.0712584  29.3382584  36.1107584
  40.0362584  34.1462584  33.7687584  40.9622584  33.9312584  33.6537584
  40.0412584  35.0022584  34.1977584  40.9892584  11.0742584  12.1557584
  40.3522584  11.5322584  11.6067584  40.4622584  10.4882584  12.6977584
  40.3662584  38.1322584  34.4847584  40.0882584  37.9342584  33.5907584
  40.8022584  38.9822584  34.4187584  39.8972584  29.5952584  11.1547584
  39.0562584  30.0532584  11.1637584  40.0832584  29.4552584  10.2257584
  42.2322584  28.6942584  33.9377584  42.6262584  29.2402584  34.6177584
  41.4262584  28.3622584  34.3337584  39.2572584  10.8762584  30.2597584
  39.2292584  11.5352584  29.5657584  38.5852584  10.2402584  30.0147584
  38.0622584  14.6512584  11.5247584  38.3912584  15.1052584  10.7487584
  38.8062584  14.6322584  12.1257584  41.7562584  34.2962584  36.5937584
  40.8212584  34.4622584  36.7107584  41.8942584  33.4252584  36.9677584
  44.1572584  35.7082584  44.7527584  43.4522584  35.1512584  45.0827584
  44.1822584  36.4472584  45.3607584  37.8292584  22.5072584  49.1557584
  37.0062584  22.8272584  48.7837584  38.1022584  21.8062584  48.5647584
  39.5822584  29.2042584  44.4657584  40.3752584  29.7402584  44.4667584
  39.8662584  28.3542584  44.8017584  38.7822584  16.3022584  45.7577584
  39.1062584  15.5142584  45.3227584  39.5682584  16.7282584  46.1007584
  45.5472584  14.8182584  44.1217584  46.2112584  15.3402584  43.6717584
  45.1812584  15.4112584  44.7787584  44.9872584  22.2042584  47.7117584
  44.3522584  21.9432584  48.3787584  45.5582584  21.4422584  47.6127584
  42.1102584  22.5142584  46.6737584  42.4362584  21.7152584  47.0887584
  41.5892584  22.9422584  47.3527584  40.1932584  32.1552584  45.6127584
  39.7532584  31.5652584  46.2247584  40.9842584  31.6842584  45.3507584
  44.5702584  37.2462584  42.2997584  43.8742584  36.7212584  41.9047584
  44.4802584  37.0942584  43.2407584  43.2002584   9.3142584  45.0827584
  44.0492584   8.9052584  44.9137584  43.3542584  10.2492584  44.9507584
  45.8562584  31.5192584  46.3467584  46.3572584  31.1372584  47.0677584
  46.4982584  31.6442584  45.6477584  41.6832584  12.7492584  49.2307584
  41.0122584  12.1112584  49.4707584  41.9452584  12.5012584  48.3447584
  43.3912584  37.2202584  48.0117584  42.8162584  37.7562584  48.5567584
  44.1322584  37.7912584  47.8087584  45.6952584  12.5722584  49.2317584
  46.0562584  12.8882584  48.4037584  46.1742584  11.7622584  49.4087584
  41.3652584  16.4742584  47.1777584  40.7932584  16.7652584  47.8877584
  41.5162584  17.2602584  46.6527584  44.8392584  24.0232584  41.1807584
  45.3312584  23.3402584  41.6357584  45.3432584  24.8232584  41.3307584
  41.0492584  36.7012584  46.7297584  40.7262584  37.5562584  46.4447584
  41.9332584  36.8732584  47.0517584  42.9962584  24.5122584  44.9317584
  43.7882584  24.0762584  44.6177584  42.8112584  24.0952584  45.7737584
  40.3912584  23.7212584  48.6147584  39.7932584  23.8482584  47.8787584
  39.9192584  23.1412584  49.2107584  42.4822584  25.0312584  41.8637584
  43.3912584  24.8352584  42.0927584  42.2882584  24.4452584  41.1327584
  43.2752584  20.1902584  43.7457584  42.4552584  20.6832584  43.7087584
  43.9132584  20.8122584  44.0947584  43.5752584  12.3122584  46.8977584
  44.0172584  12.5952584  47.6977584  43.9702584  12.8422584  46.2047584
  45.1952584  22.2352584  44.9067584  45.8772584  22.8492584  44.6357584
  45.1192584  22.3622584  45.8527584  45.0172584  18.1392584  42.5217584
  45.8922584  17.8292584  42.7537584  44.5632584  18.2282584  43.3597584
  42.5692584  14.2852584  45.1597584  43.1312584  15.0272584  44.9367584
  42.3202584  14.4382584  46.0717584  42.8672584  32.0542584  40.7017584
  43.2882584  32.3032584  41.5247584  43.5772584  31.6992584  40.1677584
  40.2212584  26.7022584  42.0527584  40.3502584  27.6502584  42.0817584
  41.0662584  26.3532584  41.7717584  40.7482584  21.2162584  43.8947584
  39.9152584  20.8482584  44.1917584  40.6552584  22.1592584  44.0307584
  44.9952584  24.9782584  47.6837584  44.8082584  24.0482584  47.8087584
  45.0262584  25.3392584  48.5697584  44.4042584  16.4402584  46.0057584
  43.8352584  17.1922584  46.1707584  45.1622584  16.5832584  46.5717584
  42.0882584  27.2872584  47.1107584  42.4852584  28.1322584  47.3237584
  42.6022584  26.9602584  46.3727584  38.0712584  37.5672584  41.8367584
  38.3712584  38.0792584  41.0857584  38.2312584  36.6572584  41.5867584
  37.2312584  29.9122584  45.3187584  38.1242584  29.5892584  45.2027584
  36.6832584  29.2712584  44.8647584  42.9912584  29.8312584  47.3847584
  43.6472584  30.2142584  47.9667584  42.1752584  29.8692584  47.8837584
  39.5032584  27.2212584  46.1437584  38.8562584  27.0602584  46.8317584
  40.3482584  27.0862584  46.5727584  43.6892584  27.3382584  42.9997584
  43.0972584  27.9532584  42.5667584  43.1902584  26.5232584  43.0547584
  44.4582584  31.5232584  44.0117584  44.7662584  32.2862584  43.5237584
  44.8392584  31.6262584  44.8837584  40.4402584  23.9182584  43.8297584
  40.8292584  24.5762584  43.2537584  40.9932584  23.9262584  44.6107584
  43.8982584  33.3012584  47.6437584  44.5072584  32.8182584  47.0857584
  43.2452584  33.6532584  47.0387584  37.9742584  26.2122584  43.6897584
  38.5682584  26.2672584  44.4387584  38.4992584  26.5032584  42.9447584
  37.8082584  23.1772584  43.0527584  37.1792584  23.8882584  43.1717584
  38.6592584  23.5772584  43.2297584  40.3672584   9.0172584  45.1937584
  41.3222584   9.0842584  45.1877584  40.0712584   9.8422584  45.5777584
  38.8742584  36.8842584  48.2017584  39.5432584  36.3752584  47.7457584
  38.0892584  36.3382584  48.1637584  38.6062584  35.1892584  41.0157584
  39.3822584  35.5022584  40.5507584  38.4282584  34.3302584  40.6337584
  40.6342584  14.6152584  42.5247584  41.1962584  15.2822584  42.1297584
  41.1692584  14.2332584  43.2207584  37.3302584  11.9932584  46.4567584
  37.1852584  11.0792584  46.2147584  37.2662584  12.0012584  47.4117584
  41.9412584  34.8642584  42.7007584  42.0242584  34.1432584  43.3247584
  41.1212584  35.2952584  42.9387584  42.7112584  29.2982584  41.2537584
  41.8062584  29.3372584  40.9437584  43.0622584  30.1712584  41.0797584
  42.0622584  30.4402584  45.1127584  42.6772584  30.7712584  44.4577584
  42.5812584  30.3692584  45.9147584  38.3772584  32.3022584  42.9017584
  38.8972584  31.8062584  42.2697584  38.8152584  32.1562584  43.7397584
  37.7522584  11.8712584  42.7257584  38.0972584  12.3762584  41.9897584
  36.8132584  11.8042584  42.5517584  38.8892584  22.9972584  46.2737584
  38.2672584  22.9472584  45.5467584  38.9552584  22.0982584  46.5947584
  41.9862584  34.2472584  45.8677584  41.5462584  35.0712584  46.0797584
  41.2732584  33.6292584  45.7077584  37.2242584  14.7692584  47.9087584
  36.6462584  14.3282584  47.2847584  37.9022584  15.1712584  47.3647584
  39.8302584  17.3612584  49.2537584  40.2532584  17.5632584  50.0887584
  38.9642584  17.7622584  49.3207584  43.2592584  11.9392584  43.9547584
  42.9062584  12.8032584  44.1687584  42.5692584  11.5202584  43.4397584
  43.0802584  18.7152584  45.9837584  42.8292584  19.2712584  46.7217584
  43.0662584  19.3002584  45.2267584  38.3972584  26.7662584  48.7787584
  38.9802584  26.8942584  49.5277584  37.6072584  26.3762584  49.1527584
  41.5992584  19.3042584  41.6677584  40.8932584  19.8772584  41.9667584
  42.3172584  19.4682584  42.2797584  45.7072584  27.3592584  45.3137584
  45.6382584  26.4292584  45.5297584  45.0672584  27.4912584  44.6147584
  38.1082584  20.6322584  44.1327584  37.9602584  21.2942584  43.4577584
  37.4382584  19.9682584  43.9687584  38.1722584  20.2182584  47.0857584
  37.9992584  20.0032584  46.1687584  38.0312584  19.3962584  47.5557584
  38.9072584  13.1822584  44.8467584  38.5862584  12.7652584  44.0467584
  38.2792584  12.9232584  45.5207584  42.4712584  19.9902584  48.1677584
  42.0382584  19.3572584  48.7417584  42.7682584  20.6832584  48.7567584
  41.8322584  16.6402584  40.9807584  41.7432584  17.5762584  41.1597584
  42.7732584  16.4742584  41.0357584  40.9792584  11.5732584  46.1607584
  41.9332584  11.6502584  46.1937584  40.6962584  12.3182584  45.6307584
  39.2732584  36.7682584  44.1277584  38.8412584  37.2092584  43.3967584
  39.6602584  37.4782584  44.6407584  37.3642584  34.3062584  44.2617584
  37.7962584  33.7642584  43.6007584  38.0372584  34.9272584  44.5397584
  37.3222584   8.7132584  46.7637584  37.3272584   8.6412584  45.8087584
  37.8672584   7.9852584  47.0617584  37.7442584  31.4672584  49.0057584
  37.3792584  31.8722584  48.2197584  37.0502584  31.5452584  49.6607584
  40.9892584  11.0742584  42.1557584  40.3522584  11.5322584  41.6067584
  40.4622584  10.4882584  42.6977584  39.8972584  29.5952584  41.1547584
  39.0562584  30.0532584  41.1637584  40.0832584  29.4552584  40.2257584
  38.0622584  14.6512584  41.5247584  38.3912584  15.1052584  40.7487584
  38.8062584  14.6322584  42.1257584  43.0722584  45.4032584 -10.6792416
  42.6072584  44.6062584 -10.9322416  43.0962584  45.9302584 -11.4782416
  39.7262584  45.5972584   9.4667584  40.4672584  46.0092584   9.9127584
  40.0562584  45.3942584   8.5917584  38.7822584  46.3022584 -14.2422416
  39.1062584  45.5142584 -14.6772416  39.5682584  46.7282584 -13.8992416
  41.5712584  40.1292584  -2.7422416  40.6402584  40.2662584  -2.9162416
  41.9612584  40.0052584  -3.6072416  45.5472584  44.8182584 -15.8782416
  46.2112584  45.3402584 -16.3282416  45.1812584  45.4112584 -15.2212416
  44.4012584  46.6372584  10.4717584  44.5532584  47.1762584  11.2477584
  45.2582584  46.5752584  10.0507584  41.8802584  42.0452584  -7.0332416
  41.0272584  42.3842584  -7.3072416  42.4242584  42.8252584  -6.9262416
  43.2002584  39.3142584 -14.9172416  44.0492584  38.9052584 -15.0862416
  43.3542584  40.2492584 -15.0492416  40.9862584  44.3632584  -0.8342416
  41.7292584  43.8282584  -1.1122416  40.2352584  43.9882584  -1.2952416
  44.4582584  43.9212584  -8.6102416  43.8432584  44.4992584  -9.0622416
  44.8342584  43.3802584  -9.3042416  41.6832584  42.7492584 -10.7692416
  41.0122584  42.1112584 -10.5292416  41.9452584  42.5012584 -11.6552416
  38.7692584  40.2712584  -7.0012416  38.8632584  39.8322584  -7.8462416
  38.9742584  41.1882584  -7.1822416  41.6632584  45.4252584   1.7147584
  41.5692584  45.1512584   0.8017584  41.6532584  46.3812584   1.6807584
  45.6952584  42.5722584 -10.7682416  46.0562584  42.8882584 -11.5962416
  46.1742584  41.7622584 -10.5912416  39.6632584  40.7032584  -9.8942416
  39.1142584  41.4412584 -10.1612416  39.0752584  39.9482584  -9.9132416
  41.6252584  38.4042584 -10.2282416  42.1472584  38.7632584  -9.5112416
  40.9012584  39.0222584 -10.3312416  39.3872584  40.8672584  -4.3602416
  39.1792584  40.4492584  -5.1962416  39.9522584  41.6042584  -4.5952416
  43.1542584  39.7302584  -8.5412416  43.9022584  40.3252584  -8.4972416
  42.3952584  40.2842584  -8.3572416  43.5752584  42.3122584 -13.1022416
  44.0172584  42.5952584 -12.3022416  43.9702584  42.8422584 -13.7952416
  42.5692584  44.2852584 -14.8402416  43.1312584  45.0272584 -15.0632416
  42.3202584  44.4382584 -13.9282416  42.8572584  46.6092584  -1.1282416
  43.4562584  46.3132584  -0.4422416  42.3822584  45.8202584  -1.3882416
  43.1042584  44.6982584   3.7957584  43.0572584  43.7422584   3.7807584
  42.4512584  44.9812584   3.1567584  42.8892584  44.9952584   8.5847584
  43.4662584  45.2182584   7.8547584  43.4232584  45.1412584   9.3657584
  41.5672584  40.4692584   3.2117584  42.2382584  41.0212584   3.6147584
  40.9472584  41.0882584   2.8277584  38.9682584  39.0602584   9.5557584
  39.7682584  39.5062584   9.8337584  38.3012584  39.7472584   9.5477584
  44.6042584  46.6812584   3.1587584  44.1972584  45.8232584   3.2767584
  44.0912584  47.0972584   2.4657584  43.1522584  40.9202584  10.2717584
  42.5962584  40.8482584  11.0467584  42.6682584  40.4622584   9.5847584
  44.4042584  46.4402584 -13.9942416  43.8352584  47.1922584 -13.8292416
  45.1622584  46.5832584 -13.4282416  44.1022584  43.0042584  -3.9092416
  43.6202584  43.5562584  -4.5242416  43.4752584  42.8192584  -3.2102416
  42.3082584  42.4402584   7.4927584  41.3802584  42.5752584   7.3017584
  42.5422584  43.1642584   8.0727584  40.7502584  45.6252584   6.6637584
  41.5502584  45.1062584   6.7477584  40.6042584  45.6892584   5.7197584
  38.0682584  41.8522584   4.5797584  37.7492584  40.9752584   4.3687584
  38.8312584  41.9732584   4.0137584  45.1402584  45.5312584   0.3557584
  45.1172584  44.5752584   0.3287584  45.9802584  45.7402584   0.7657584
  38.3152584  44.4882584  -9.7392416  37.8422584  44.7552584 -10.5272416
  39.1142584  45.0152584  -9.7482416  39.3612584  43.1112584  -7.2902416
  38.8852584  43.4522584  -8.0472416  39.0372584  43.6252584  -6.5512416
  38.1852584  38.4292584   6.3567584  38.9702584  38.5002584   5.8137584
  38.4352584  38.8232584   7.1927584  40.3672584  39.0172584 -14.8062416
  41.3222584  39.0842584 -14.8122416  40.0712584  39.8422584 -14.4222416
  44.3932584  40.6192584   0.4167584  44.9452584  39.8532584   0.2597584
  43.6422584  40.2782584   0.9037584  40.6342584  44.6152584 -17.4752416
  41.1962584  45.2822584 -17.8702416  41.1692584  44.2332584 -16.7792416
  37.3302584  41.9932584 -13.5432416  37.1852584  41.0792584 -13.7852416
  37.2662584  42.0012584 -12.5882416  42.2482584  39.4342584   8.2367584
  42.4302584  40.2432584   7.7597584  42.1172584  38.7772584   7.5527584
  45.4462584  39.7012584   8.7627584  44.7892584  39.8422584   9.4447584
  45.3822584  38.7672584   8.5587584  42.6952584  38.6102584   1.5167584
  42.3452584  39.2372584   2.1497584  42.5572584  37.7552584   1.9257584
  37.2542584  45.1622584  -1.7972416  37.9722584  45.7662584  -1.6082416
  36.9112584  45.4552584  -2.6412416  42.8092584  42.3502584  -1.4182416
  43.3232584  41.8492584  -0.7862416  42.3032584  41.6902584  -1.8932416
  37.7522584  41.8712584 -17.2742416  38.0972584  42.3762584 -18.0102416
  36.8132584  41.8042584 -17.4482416  37.2242584  44.7692584 -12.0912416
  36.6462584  44.3282584 -12.7152416  37.9022584  45.1712584 -12.6352416
  42.6042584  40.0732584  -5.2792416  43.5462584  39.9802584  -5.4262416
  42.3132584  40.6792584  -5.9602416  39.8892584  42.5242584   2.4907584
  39.4992584  42.0212584   1.7757584  40.1932584  43.3322584   2.0757584
  39.1602584  46.6862584  -0.9532416  40.0112584  47.0902584  -0.7852416
  38.6022584  46.9962584  -0.2402416  43.2592584  41.9392584 -16.0452416
  42.9062584  42.8032584 -15.8312416  42.5692584  41.5202584 -16.5602416
  38.4482584  45.2452584  -5.2172416  37.5602584  45.1722584  -4.8702416
  38.7412584  46.1152584  -4.9472416  37.8762584  42.9152584   7.1997584
  38.0152584  42.7692584   6.2647584  38.0702584  43.8432584   7.3297584
  39.8422584  45.5062584   3.9497584  40.1092584  46.3182584   3.5177584
  39.2972584  45.0582584   3.3017584  38.9072584  43.1822584 -15.1532416
  38.5862584  42.7652584 -15.9532416  38.2792584  42.9232584 -14.4792416
  39.7102584  42.2252584   9.6137584  39.5332584  43.1642584   9.6567584
  39.1982584  41.9172584   8.8657584  37.3142584  45.6082584   5.6557584
  38.1942584  45.7422584   5.3017584  36.8712584  46.4462584   5.5207584
  43.2452584  44.4732584  -6.3902416  43.9552584  44.3602584  -7.0222416
  43.1732584  45.4202584  -6.2762416  43.3692584  42.0802584   4.4807584
  44.2252584  41.8682584   4.8537584  42.8202584  42.2792584   5.2387584
  41.8322584  46.6402584 -19.0192416  41.7432584  47.5762584 -18.8402416
  42.7732584  46.4742584 -18.9642416  40.7722584  43.7282584  -4.6572416
  41.4802584  44.1812584  -5.1162416  40.0402584  44.3452584  -4.6762416
  38.9032584  42.9932584  -2.0182416  38.4612584  42.5472584  -2.7412416
  38.2742584  43.6512584  -1.7222416  40.9792584  41.5732584 -13.8392416
  41.9332584  41.6502584 -13.8062416  40.6962584  42.3182584 -14.3692416
  37.3222584  38.7132584 -13.2362416  37.3272584  38.6412584 -14.1912416
  37.8672584  37.9852584 -12.9382416  45.0392584  43.0882584   9.4507584
  45.4142584  43.1732584  10.3267584  44.5562584  42.2622584   9.4747584
  40.9892584  41.0742584 -17.8442416  40.3522584  41.5322584 -18.3932416
  40.4622584  40.4882584 -17.3022416  39.2572584  40.8762584   0.2597584
  39.2292584  41.5352584  -0.4342416  38.5852584  40.2402584   0.0147584
  38.0622584  44.6512584 -18.4752416  38.3912584  45.1052584 -19.2512416
  38.8062584  44.6322584 -17.8742416  43.0722584  45.4032584  19.3207584
  42.6072584  44.6062584  19.0677584  43.0962584  45.9302584  18.5217584
  39.7262584  45.5972584  39.4667584  40.4672584  46.0092584  39.9127584
  40.0562584  45.3942584  38.5917584  38.7822584  46.3022584  15.7577584
  39.1062584  45.5142584  15.3227584  39.5682584  46.7282584  16.1007584
  41.5712584  40.1292584  27.2577584  40.6402584  40.2662584  27.0837584
  41.9612584  40.0052584  26.3927584  45.5472584  44.8182584  14.1217584
  46.2112584  45.3402584  13.6717584  45.1812584  45.4112584  14.7787584
  44.4012584  46.6372584  40.4717584  44.5532584  47.1762584  41.2477584
  45.2582584  46.5752584  40.0507584  41.8802584  42.0452584  22.9667584
  41.0272584  42.3842584  22.6927584  42.4242584  42.8252584  23.0737584
  43.2002584  39.3142584  15.0827584  44.0492584  38.9052584  14.9137584
  43.3542584  40.2492584  14.9507584  40.9862584  44.3632584  29.1657584
  41.7292584  43.8282584  28.8877584  40.2352584  43.9882584  28.7047584
  44.4582584  43.9212584  21.3897584  43.8432584  44.4992584  20.9377584
  44.8342584  43.3802584  20.6957584  41.6832584  42.7492584  19.2307584
  41.0122584  42.1112584  19.4707584  41.9452584  42.5012584  18.3447584
  38.7692584  40.2712584  22.9987584  38.8632584  39.8322584  22.1537584
  38.9742584  41.1882584  22.8177584  41.6632584  45.4252584  31.7147584
  41.5692584  45.1512584  30.8017584  41.6532584  46.3812584  31.6807584
  45.6952584  42.5722584  19.2317584  46.0562584  42.8882584  18.4037584
  46.1742584  41.7622584  19.4087584  41.3652584  46.4742584  17.1777584
  40.7932584  46.7652584  17.8877584  41.5162584  47.2602584  16.6527584
  39.6632584  40.7032584  20.1057584  39.1142584  41.4412584  19.8387584
  39.0752584  39.9482584  20.0867584  45.2132584  39.4852584  24.6827584
  45.3802584  40.2382584  24.1157584  45.7782584  39.6282584  25.4437584
  41.6252584  38.4042584  19.7717584  42.1472584  38.7632584  20.4887584
  40.9012584  39.0222584  19.6687584  39.3872584  40.8672584  25.6397584
  39.1792584  40.4492584  24.8037584  39.9522584  41.6042584  25.4047584
  43.1542584  39.7302584  21.4587584  43.9022584  40.3252584  21.5027584
  42.3952584  40.2842584  21.6427584  43.5752584  42.3122584  16.8977584
  44.0172584  42.5952584  17.6977584  43.9702584  42.8422584  16.2047584
  42.5692584  44.2852584  15.1597584  43.1312584  45.0272584  14.9367584
  42.3202584  44.4382584  16.0717584  42.8572584  46.6092584  28.8717584
  43.4562584  46.3132584  29.5577584  42.3822584  45.8202584  28.6117584
  43.1042584  44.6982584  33.7957584  43.0572584  43.7422584  33.7807584
  42.4512584  44.9812584  33.1567584  42.8892584  44.9952584  38.5847584
  43.4662584  45.2182584  37.8547584  43.4232584  45.1412584  39.3657584
  41.5672584  40.4692584  33.2117584  42.2382584  41.0212584  33.6147584
  40.9472584  41.0882584  32.8277584  38.9682584  39.0602584  39.5557584
  39.7682584  39.5062584  39.8337584  38.3012584  39.7472584  39.5477584
  44.6042584  46.6812584  33.1587584  44.1972584  45.8232584  33.2767584
  44.0912584  47.0972584  32.4657584  43.1522584  40.9202584  40.2717584
  42.5962584  40.8482584  41.0467584  42.6682584  40.4622584  39.5847584
  44.4042584  46.4402584  16.0057584  43.8352584  47.1922584  16.1707584
  45.1622584  46.5832584  16.5717584  44.1022584  43.0042584  26.0907584
  43.6202584  43.5562584  25.4757584  43.4752584  42.8192584  26.7897584
  42.3082584  42.4402584  37.4927584  41.3802584  42.5752584  37.3017584
  42.5422584  43.1642584  38.0727584  40.7502584  45.6252584  36.6637584
  41.5502584  45.1062584  36.7477584  40.6042584  45.6892584  35.7197584
  38.0682584  41.8522584  34.5797584  37.7492584  40.9752584  34.3687584
  38.8312584  41.9732584  34.0137584  45.1402584  45.5312584  30.3557584
  45.1172584  44.5752584  30.3287584  45.9802584  45.7402584  30.7657584
  38.3152584  44.4882584  20.2607584  37.8422584  44.7552584  19.4727584
  39.1142584  45.0152584  20.2517584  39.3612584  43.1112584  22.7097584
  38.8852584  43.4522584  21.9527584  39.0372584  43.6252584  23.4487584
  38.1852584  38.4292584  36.3567584  38.9702584  38.5002584  35.8137584
  38.4352584  38.8232584  37.1927584  40.3672584  39.0172584  15.1937584
  41.3222584  39.0842584  15.1877584  40.0712584  39.8422584  15.5777584
  44.3932584  40.6192584  30.4167584  44.9452584  39.8532584  30.2597584
  43.6422584  40.2782584  30.9037584  40.6342584  44.6152584  12.5247584
  41.1962584  45.2822584  12.1297584  41.1692584  44.2332584  13.2207584
  37.3302584  41.9932584  16.4567584  37.1852584  41.0792584  16.2147584
  37.2662584  42.0012584  17.4117584  42.2482584  39.4342584  38.2367584
  42.4302584  40.2432584  37.7597584  42.1172584  38.7772584  37.5527584
  45.4462584  39.7012584  38.7627584  44.7892584  39.8422584  39.4447584
  45.3822584  38.7672584  38.5587584  42.6952584  38.6102584  31.5167584
  42.3452584  39.2372584  32.1497584  42.5572584  37.7552584  31.9257584
  37.2542584  45.1622584  28.2027584  37.9722584  45.7662584  28.3917584
  36.9112584  45.4552584  27.3587584  42.8092584  42.3502584  28.5817584
  43.3232584  41.8492584  29.2137584  42.3032584  41.6902584  28.1067584
  37.7522584  41.8712584  12.7257584  38.0972584  42.3762584  11.9897584
  36.8132584  41.8042584  12.5517584  37.2242584  44.7692584  17.9087584
  36.6462584  44.3282584  17.2847584  37.9022584  45.1712584  17.3647584
  42.6042584  40.0732584  24.7207584  43.5462584  39.9802584  24.5737584
  42.3132584  40.6792584  24.0397584  45.7432584  42.8332584  30.0477584
  46.3502584  42.5302584  30.7237584  45.0082584  42.2212584  30.0947584
  39.8892584  42.5242584  32.4907584  39.4992584  42.0212584  31.7757584
  40.1932584  43.3322584  32.0757584  39.1602584  46.6862584  29.0467584
  40.0112584  47.0902584  29.2147584  38.6022584  46.9962584  29.7597584
  43.2592584  41.9392584  13.9547584  42.9062584  42.8032584  14.1687584
  42.5692584  41.5202584  13.4397584  38.4482584  45.2452584  24.7827584
  37.5602584  45.1722584  25.1297584  38.7412584  46.1152584  25.0527584
  37.8762584  42.9152584  37.1997584  38.0152584  42.7692584  36.2647584
  38.0702584  43.8432584  37.3297584  39.8422584  45.5062584  33.9497584
  40.1092584  46.3182584  33.5177584  39.2972584  45.0582584  33.3017584
  38.9072584  43.1822584  14.8467584  38.5862584  42.7652584  14.0467584
  38.2792584  42.9232584  15.5207584  39.7102584  42.2252584  39.6137584
  39.5332584  43.1642584  39.6567584  39.1982584  41.9172584  38.8657584
  37.3142584  45.6082584  35.6557584  38.1942584  45.7422584  35.3017584
  36.8712584  46.4462584  35.5207584  43.2452584  44.4732584  23.6097584
  43.9552584  44.3602584  22.9777584  43.1732584  45.4202584  23.7237584
  43.3692584  42.0802584  34.4807584  44.2252584  41.8682584  34.8537584
  42.8202584  42.2792584  35.2387584  41.8322584  46.6402584  10.9807584
  41.7432584  47.5762584  11.1597584  42.7732584  46.4742584  11.0357584
  40.7722584  43.7282584  25.3427584  41.4802584  44.1812584  24.8837584
  40.0402584  44.3452584  25.3237584  38.9032584  42.9932584  27.9817584
  38.4612584  42.5472584  27.2587584  38.2742584  43.6512584  28.2777584
  40.9792584  41.5732584  16.1607584  41.9332584  41.6502584  16.1937584
  40.6962584  42.3182584  15.6307584  37.3222584  38.7132584  16.7637584
  37.3272584  38.6412584  15.8087584  37.8672584  37.9852584  17.0617584
  45.0392584  43.0882584  39.4507584  45.4142584  43.1732584  40.3267584
  44.5562584  42.2622584  39.4747584  40.9892584  41.0742584  12.1557584
  40.3522584  41.5322584  11.6067584  40.4622584  40.4882584  12.6977584
  39.2572584  40.8762584  30.2597584  39.2292584  41.5352584  29.5657584
  38.5852584  40.2402584  30.0147584  38.0622584  44.6512584  11.5247584
  38.3912584  45.1052584  10.7487584  38.8062584  44.6322584  12.1257584
  38.7822584  46.3022584  45.7577584  39.1062584  45.5142584  45.3227584
  39.5682584  46.7282584  46.1007584  45.5472584  44.8182584  44.1217584
  46.2112584  45.3402584  43.6717584  45.1812584  45.4112584  44.7787584
  43.2002584  39.3142584  45.0827584  44.0492584  38.9052584  44.9137584
  43.3542584  40.2492584  44.9507584  41.6832584  42.7492584  49.2307584
  41.0122584  42.1112584  49.4707584  41.9452584  42.5012584  48.3447584
  45.6952584  42.5722584  49.2317584  46.0562584  42.8882584  48.4037584
  46.1742584  41.7622584  49.4087584  41.3652584  46.4742584  47.1777584
  40.7932584  46.7652584  47.8877584  41.5162584  47.2602584  46.6527584
  43.5752584  42.3122584  46.8977584  44.0172584  42.5952584  47.6977584
  43.9702584  42.8422584  46.2047584  42.5692584  44.2852584  45.1597584
  43.1312584  45.0272584  44.9367584  42.3202584  44.4382584  46.0717584
  44.4042584  46.4402584  46.0057584  43.8352584  47.1922584  46.1707584
  45.1622584  46.5832584  46.5717584  40.3672584  39.0172584  45.1937584
  41.3222584  39.0842584  45.1877584  40.0712584  39.8422584  45.5777584
  40.6342584  44.6152584  42.5247584  41.1962584  45.2822584  42.1297584
  41.1692584  44.2332584  43.2207584  37.3302584  41.9932584  46.4567584
  37.1852584  41.0792584  46.2147584  37.2662584  42.0012584  47.4117584
  37.7522584  41.8712584  42.7257584  38.0972584  42.3762584  41.9897584
  36.8132584  41.8042584  42.5517584  37.2242584  44.7692584  47.9087584
  36.6462584  44.3282584  47.2847584  37.9022584  45.1712584  47.3647584
  43.2592584  41.9392584  43.9547584  42.9062584  42.8032584  44.1687584
  42.5692584  41.5202584  43.4397584  38.9072584  43.1822584  44.8467584
  38.5862584  42.7652584  44.0467584  38.2792584  42.9232584  45.5207584
  41.8322584  46.6402584  40.9807584  41.7432584  47.5762584  41.1597584
  42.7732584  46.4742584  41.0357584  40.9792584  41.5732584  46.1607584
  41.9332584  41.6502584  46.1937584  40.6962584  42.3182584  45.6307584
  37.3222584  38.7132584  46.7637584  37.3272584  38.6412584  45.8087584
  37.8672584  37.9852584  47.0617584  40.9892584  41.0742584  42.1557584
  40.3522584  41.5322584  41.6067584  40.4622584  40.4882584  42.6977584
  38.0622584  44.6512584  41.5247584  38.3912584  45.1052584  40.7487584
  38.8062584  44.6322584  42.1257584  -7.7357416  41.5442584  22.5927584
   4.9542584  41.2192584  14.5687584 -20.1317416  27.2172584  -8.4042416
  45.2132584  39.4852584  -5.3172416  24.9162584 -12.5507416  -4.8492416
  38.0622584  14.6512584 -18.4752416 -12.3737416   9.8782584  -3.6582416
   1.3772584  42.8642584  39.8947584  39.8422584  15.5062584  33.9497584
  39.7102584  12.2252584   9.6137584  35.2462584  34.3242584  -7.1752416
 -18.1197416  12.0452584  22.9667584  35.1882584 -20.0217416  19.9157584
 -21.0967416  42.9932584  27.9817584  36.7262584 -20.8657416 -16.0042416
  11.3652584 -13.5257416 -12.8222416 -16.7547416  14.4732584  -6.3902416
  21.7572584 -10.2337416  23.1247584  -2.6907416  42.2712584  -4.3532416
  25.1572584 -16.7877416  10.9537584  42.8092584 -17.6497416  28.5817584
   5.1882584  39.9782584 -10.0842416  36.1192584  27.7892584  39.7327584
  -7.7357416 -18.4557416  22.5927584  -2.3607416  14.1592584  46.5707584
  -4.2527416  27.3602584  35.3017584  32.9302584  -2.4197416  18.7997584
 -17.6917416  42.4402584  37.4927584 -22.1917416  -6.8227416  13.0527584
  36.8022584   6.3022584  25.9427584 -21.3227416  28.9472584   6.7407584
  -6.0077416  17.2712584  32.5327584  24.5272584  39.7492584  -2.0082416
  19.4632584  24.8592584  39.3957584  25.0302584  44.2352584  28.9717584
   2.0142584 -14.1357416 -10.7702416  32.0142584  15.8642584 -10.7702416
 -21.1897416 -11.9047416  35.8257584  -8.4107416  26.6292584  -8.6402416
  16.9152584  36.5042584 -10.7642416  -1.7147416  41.2812584   8.3377584
  -1.8757416 -13.4437416  28.4727584  45.7432584  42.8332584   0.0477584
   2.0272584  -3.4307416  -3.8502416 -22.9327416 -12.3377416  38.0697584
  37.3672584  -9.7327416  22.2257584  23.6042584   6.3652584  -3.3402416
  28.4462584  31.9512584  31.4077584  26.5812584  -9.5417416  42.3277584
   7.2252584  17.7902584 -12.0332416 -12.4307416   1.9122584  27.7377584
  35.8852584  27.6352584 -15.5182416   9.2572584  40.8762584  30.2597584
 -12.0297416  18.4012584  25.9747584   7.0912584  34.1262584  33.5747584
  34.6642584  34.2702584  47.1267584  41.3652584  46.4742584 -12.8222416
  35.0822584 -18.6267416 -18.5912416   1.3692584  -3.0567416  42.3857584
  21.8642584 -13.7697416  15.9747584 -21.6507416  26.8952584  30.6597584
 -14.6177416  -4.4127416  34.2097584  31.4632584   7.6492584   5.2827584
  15.1952584  22.2352584  44.9067584 -14.3467416 -19.0117416  35.5487584
  -0.8797416  -3.1067416  38.0437584  20.3152584  -6.3307416   6.9787584
  68.6994831  68.6994831  68.6994831  90.0000000  90.0000000  90.0000000
